! TOUCHSTONE file generated by CST MICROWAVE STUDIO
! Date and time: Wed Jul 31 10:40:44 2024
! Project name: WaveGuide_BPF-Ver4.1_U-shape_Ku_T3_C4_CWA_2.cst
! Parameters = {cavity_h=16; cavity_l0=10; cavity_l1=15.1701; cavity_l2=16.8843; cavity_l3=17.0814; cavity_l4=17.3094; cavity_l5=17.1483; cavity_l6=17.5959; cavity_r=2.5; cavity_screw_l=0.5; cavity_screw_r=1.5; cavity_w=8; iris_h00=0; iris_h01=8.8372; iris_h112=0; iris_h12=5.6103; iris_h211=3.6655; iris_h23=5.1879; iris_h310=3.9793; iris_h34=5.0769; iris_h45=4.9393; iris_h49=4.6258; iris_h56=4.797; iris_h58=4.4498; iris_h67=6.5801; iris_rx=0.1; iris_screw_l=0.5; iris_screw_r=1.5; iris_shift00=0; iris_shift112=0; iris_shift211=3.5; iris_shift310=0; iris_shift49=0; iris_shift58=3.5; iris_shift67=3.5; iris_tx=4.5; iris_tz=4.5; iris_w00=0; iris_w112=0; iris_w211=4; iris_w310=3.9793; iris_w49=4.6258; iris_w58=4; iris_w67=4; mesh_cavity=5; mesh_iris=7; mesh_screw=7; order=12; reset_all=0; sigma=4.8e+07}
! Header version: 2018
! Port assignment regex: !\s*Touchstone port\s*([0-9]+)\s*=\s*(CST MWS port|CST DS port)\s*([0-9]+|Zmin|Zmax)\s*\(\"(.*)\"\)(\s*mode\s*([0-9]+))?.*
! Touchstone port assignment:
! Touchstone port 1 = CST MWS port 1 ("")
! Touchstone port 2 = CST MWS port 2 ("")
# GHz S RI R 50
12.66                0.311180575     0.930400872   0.000344430428 -0.000147044086   0.000344430428 -0.000147044086      0.316092039     0.928691812
12.660028            0.311576934     0.930252892   0.000344981706 -0.000147470191   0.000344981706 -0.000147470191      0.316489823      0.92854087
12.660056            0.311973566     0.930104604   0.000345534023  -0.00014789757   0.000345534023  -0.00014789757      0.316887755     0.928389657
12.660084            0.312370464      0.92995601   0.000346087376 -0.000148326233   0.000346087376 -0.000148326233      0.317285883     0.928238158
12.660112            0.312767623     0.929807112   0.000346641763 -0.000148756189   0.000346641762 -0.000148756189      0.317684253     0.928086357
12.66014             0.313165034     0.929657911   0.000347197178  -0.00014918745   0.000347197178  -0.00014918745      0.318082912     0.927934237
12.660168            0.313562698     0.929508408   0.000347753624  -0.00014962002   0.000347753624  -0.00014962002      0.318481861     0.927781797
12.660196             0.31396062     0.929358599   0.000348311107 -0.000150053899   0.000348311107   -0.0001500539      0.318881069     0.927629048
12.660224              0.3143588     0.929208485   0.000348869629 -0.000150489092   0.000348869629 -0.000150489093      0.319280535     0.927475989
12.660252            0.314757239     0.929058065   0.000349429192 -0.000150925603   0.000349429192 -0.000150925603      0.319680261     0.927322618
12.66028             0.315155937     0.928907337   0.000349989799 -0.000151363436   0.000349989798 -0.000151363437      0.320080246     0.927168937
12.660308            0.315554894     0.928756302    0.00035055145 -0.000151802596    0.00035055145 -0.000151802597      0.320480491     0.927014943
12.660336             0.31595411     0.928604958   0.000351114148 -0.000152243088   0.000351114148 -0.000152243088      0.320880996     0.926860636
12.660364            0.316353586     0.928453306   0.000351677896 -0.000152684915   0.000351677896 -0.000152684915       0.32128176     0.926706016
12.660392            0.316753321     0.928301344   0.000352242695 -0.000153128082   0.000352242695 -0.000153128082      0.321682786     0.926551082
12.66042             0.317153316     0.928149072   0.000352808548 -0.000153572594   0.000352808548 -0.000153572594      0.322084071     0.926395833
12.660448            0.317553572     0.927996489   0.000353375456 -0.000154018455   0.000353375456 -0.000154018455      0.322485618     0.926240269
12.660476            0.317954088     0.927843595   0.000353943422  -0.00015446567   0.000353943422  -0.00015446567      0.322887426      0.92608439
12.660504            0.318354865     0.927690389   0.000354512447 -0.000154914243   0.000354512447 -0.000154914243      0.323289495     0.925928193
12.660532            0.318755903     0.927536871   0.000355082534 -0.000155364179   0.000355082534  -0.00015536418      0.323691826      0.92577168
12.66056             0.319157202     0.927383039   0.000355653685 -0.000155815483   0.000355653685 -0.000155815483      0.324094419     0.925614848
12.660588            0.319558762     0.927228893   0.000356225902 -0.000156268158   0.000356225902 -0.000156268159      0.324497274     0.925457698
12.660616            0.319960585     0.927074432   0.000356799188 -0.000156722211   0.000356799188 -0.000156722211      0.324900391     0.925300229
12.660644            0.320362669     0.926919657   0.000357373543 -0.000157177644   0.000357373543 -0.000157177644      0.325303771      0.92514244
12.660672            0.320765015     0.926764566   0.000357948971 -0.000157634463   0.000357948971 -0.000157634464      0.325707413     0.924984331
12.6607              0.321167624     0.926609158   0.000358525473 -0.000158092673   0.000358525473 -0.000158092674      0.326111319       0.9248259
12.660728            0.321570496     0.926453433   0.000359103051 -0.000158552279   0.000359103051 -0.000158552279      0.326515488     0.924667148
12.660756            0.321973631      0.92629739   0.000359681709 -0.000159013284   0.000359681709 -0.000159013284      0.326919921     0.924508073
12.660784            0.322377029     0.926141029   0.000360261447 -0.000159475694   0.000360261447 -0.000159475694      0.327324617     0.924348676
12.660812             0.32278069     0.925984349   0.000360842268 -0.000159939513   0.000360842268 -0.000159939514      0.327729578     0.924188954
12.66084             0.323184615     0.925827349   0.000361424174 -0.000160404747   0.000361424174 -0.000160404747      0.328134803     0.924028909
12.660868            0.323588804     0.925670029   0.000362007167   -0.0001608714   0.000362007167   -0.0001608714      0.328540293     0.923868538
12.660896            0.323993258     0.925512388    0.00036259125 -0.000161339476    0.00036259125 -0.000161339476      0.328946047     0.923707841
12.660924            0.324397976     0.925354426   0.000363176424 -0.000161808981   0.000363176424 -0.000161808981      0.329352066     0.923546818
12.660952            0.324802958      0.92519614   0.000363762692 -0.000162279919   0.000363762691 -0.000162279919      0.329758351     0.923385468
12.66098             0.325208206     0.925037533   0.000364350055 -0.000162752296   0.000364350055 -0.000162752296      0.330164901     0.923223791
12.661008            0.325613718     0.924878601   0.000364938516 -0.000163226115   0.000364938516 -0.000163226116      0.330571718     0.923061785
12.661036            0.326019496     0.924719345   0.000365528078 -0.000163701383   0.000365528078 -0.000163701383        0.3309788      0.92289945
12.661064             0.32642554     0.924559764   0.000366118742 -0.000164178103   0.000366118742 -0.000164178104      0.331386148     0.922736785
12.661092             0.32683185     0.924399858    0.00036671051 -0.000164656282    0.00036671051 -0.000164656282      0.331793763      0.92257379
12.66112             0.327238426     0.924239625   0.000367303385 -0.000165135923   0.000367303384 -0.000165135923      0.332201645     0.922410464
12.661148            0.327645269     0.924079065   0.000367897368 -0.000165617031   0.000367897368 -0.000165617032      0.332609794     0.922246806
12.661176            0.328052378     0.923918178   0.000368492462 -0.000166099613   0.000368492462 -0.000166099613      0.333018211     0.922082815
12.661204            0.328459754     0.923756963    0.00036908867 -0.000166583672    0.00036908867 -0.000166583672      0.333426895     0.921918492
12.661232            0.328867398     0.923595418   0.000369685993 -0.000167069214   0.000369685993 -0.000167069214      0.333835846     0.921753834
12.66126             0.329275309     0.923433544   0.000370284433 -0.000167556243   0.000370284433 -0.000167556243      0.334245066     0.921588843
12.661288            0.329683487      0.92327134   0.000370883993 -0.000168044765   0.000370883993 -0.000168044765      0.334654554     0.921423516
12.661316            0.330091934     0.923108804   0.000371484675 -0.000168534785   0.000371484675 -0.000168534785      0.335064311     0.921257853
12.661344            0.330500649     0.922945937   0.000372086481 -0.000169026308    0.00037208648 -0.000169026308      0.335474336     0.921091853
12.661372            0.330909632     0.922782737   0.000372689413 -0.000169519339   0.000372689413 -0.000169519339      0.335884631     0.920925517
12.6614              0.331318884     0.922619205   0.000373293473 -0.000170013883   0.000373293473 -0.000170013883      0.336295195     0.920758842
12.661428            0.331728405     0.922455339   0.000373898664 -0.000170509945   0.000373898664 -0.000170509945      0.336706028     0.920591829
12.661456            0.332138196     0.922291138   0.000374504988 -0.000171007531   0.000374504988 -0.000171007531      0.337117132     0.920424476
12.661484            0.332548256     0.922126602   0.000375112447 -0.000171506645   0.000375112447 -0.000171506646      0.337528505     0.920256783
12.661512            0.332958585     0.921961731   0.000375721044 -0.000172007294   0.000375721044 -0.000172007294      0.337940149      0.92008875
12.66154             0.333369185     0.921796523    0.00037633078 -0.000172509481    0.00037633078 -0.000172509481      0.338352063     0.919920375
12.661568            0.333780055     0.921630978   0.000376941657 -0.000173013212   0.000376941657 -0.000173013213      0.338764248     0.919751658
12.661596            0.334191195     0.921465095   0.000377553679 -0.000173518494   0.000377553679 -0.000173518494      0.339176704     0.919582598
12.661624            0.334602606     0.921298873   0.000378166847  -0.00017402533   0.000378166847  -0.00017402533      0.339589432     0.919413195
12.661652            0.335014288     0.921132312   0.000378781163 -0.000174533726   0.000378781163 -0.000174533726      0.340002431     0.919243447
12.66168             0.335426242     0.920965411    0.00037939663 -0.000175043687    0.00037939663 -0.000175043687      0.340415702     0.919073355
12.661708            0.335838467      0.92079817   0.000380013249  -0.00017555522   0.000380013249  -0.00017555522      0.340829245     0.918902916
12.661736            0.336250964     0.920630587   0.000380631024 -0.000176068328   0.000380631024 -0.000176068329       0.34124306     0.918732131
12.661764            0.336663732     0.920462662   0.000381249957 -0.000176583018   0.000381249956 -0.000176583019      0.341657148     0.918560999
12.661792            0.337076773     0.920294394   0.000381870048 -0.000177099296   0.000381870048 -0.000177099296      0.342071509      0.91838952
12.66182             0.337490087     0.920125782   0.000382491302 -0.000177617165   0.000382491302 -0.000177617165      0.342486143     0.918217691
12.661848            0.337903673     0.919956827    0.00038311372 -0.000178136633    0.00038311372 -0.000178136633       0.34290105     0.918045513
12.661876            0.338317533     0.919787526   0.000383737305 -0.000178657703   0.000383737304 -0.000178657703      0.343316231     0.917872986
12.661904            0.338731666      0.91961788   0.000384362058 -0.000179180383   0.000384362057 -0.000179180383      0.343731686     0.917700107
12.661932            0.339146072     0.919447887   0.000384987982 -0.000179704677   0.000384987981 -0.000179704677      0.344147415     0.917526877
12.66196             0.339560752     0.919277548   0.000385615079  -0.00018023059   0.000385615079  -0.00018023059      0.344563418     0.917353295
12.661988            0.339975706      0.91910686   0.000386243351 -0.000180758129   0.000386243351 -0.000180758129      0.344979696     0.917179359
12.662016            0.340390935     0.918935824   0.000386872802 -0.000181287299   0.000386872802 -0.000181287299      0.345396249      0.91700507
12.662044            0.340806438     0.918764439   0.000387503432 -0.000181818106   0.000387503432 -0.000181818106      0.345813077     0.916830427
12.662072            0.341222216     0.918592704   0.000388135245 -0.000182350554   0.000388135245 -0.000182350555      0.346230181     0.916655428
12.6621              0.341638269     0.918420617   0.000388768242 -0.000182884651   0.000388768242 -0.000182884651       0.34664756     0.916480074
12.662128            0.342054598      0.91824818   0.000389402426 -0.000183420401   0.000389402426 -0.000183420401      0.347065215     0.916304363
12.662156            0.342471202      0.91807539     0.0003900378  -0.00018395781     0.0003900378  -0.00018395781      0.347483146     0.916128294
12.662184            0.342888082     0.917902248   0.000390674365 -0.000184496884   0.000390674365 -0.000184496884      0.347901353     0.915951867
12.662212            0.343305238     0.917728751   0.000391312124 -0.000185037628   0.000391312123 -0.000185037628      0.348319837     0.915775082
12.66224             0.343722671     0.917554901   0.000391951078 -0.000185580049   0.000391951078 -0.000185580049      0.348738599     0.915597936
12.662268             0.34414038     0.917380695   0.000392591232 -0.000186124152   0.000392591231 -0.000186124152      0.349157637     0.915420431
12.662296            0.344558366     0.917206133   0.000393232585 -0.000186669942   0.000393232585 -0.000186669943      0.349576953     0.915242564
12.662324            0.344976629     0.917031215   0.000393875142 -0.000187217427   0.000393875142 -0.000187217427      0.349996546     0.915064335
12.662352             0.34539517     0.916855939   0.000394518905 -0.000187766611   0.000394518904 -0.000187766611      0.350416417     0.914885743
12.66238             0.345813988     0.916680305   0.000395163874   -0.0001883175   0.000395163874   -0.0001883175      0.350836567     0.914706788
12.662408            0.346233085     0.916504312   0.000395810054   -0.0001888701   0.000395810054   -0.0001888701      0.351256995     0.914527469
12.662436            0.346652459      0.91632796   0.000396457446 -0.000189424418   0.000396457446 -0.000189424418      0.351677702     0.914347785
12.662464            0.347072112     0.916151247   0.000397106053 -0.000189980458   0.000397106053 -0.000189980458      0.352098688     0.914167735
12.662492            0.347492044     0.915974173   0.000397755877 -0.000190538228   0.000397755877 -0.000190538228      0.352519953     0.913987319
12.66252             0.347912255     0.915796737    0.00039840692 -0.000191097732    0.00039840692 -0.000191097733      0.352941497     0.913806535
12.662548            0.348332745     0.915618938   0.000399059185 -0.000191658978   0.000399059185 -0.000191658978      0.353363321     0.913625383
12.662576            0.348753514     0.915440776   0.000399712673  -0.00019222197   0.000399712673 -0.000192221971      0.353785426     0.913443862
12.662604            0.349174563      0.91526225   0.000400367388 -0.000192786716   0.000400367388 -0.000192786716       0.35420781     0.913261972
12.662632            0.349595892     0.915083359   0.000401023332  -0.00019335322   0.000401023332 -0.000193353221      0.354630475     0.913079712
12.66266             0.350017502     0.914904102   0.000401680507  -0.00019392149   0.000401680506  -0.00019392149      0.355053421      0.91289708
12.662688            0.350439392     0.914724478   0.000402338915 -0.000194491531   0.000402338915 -0.000194491531      0.355476648     0.912714076
12.662716            0.350861563     0.914544487   0.000402998558 -0.000195063349   0.000402998558  -0.00019506335      0.355900156     0.912530699
12.662744            0.351284014     0.914364129    0.00040365944 -0.000195636951    0.00040365944 -0.000195636952      0.356323946     0.912346949
12.662772            0.351706748     0.914183401   0.000404321562 -0.000196212343   0.000404321562 -0.000196212343      0.356748018     0.912162825
12.6628              0.352129762     0.914002304   0.000404984928  -0.00019678953   0.000404984927 -0.000196789531      0.357172371     0.911978325
12.662828            0.352553059     0.913820836   0.000405649538  -0.00019736852   0.000405649538  -0.00019736852      0.357597007      0.91179345
12.662856            0.352976638     0.913638997   0.000406315396 -0.000197949318   0.000406315396 -0.000197949318      0.358021926     0.911608198
12.662884            0.353400499     0.913456786   0.000406982504 -0.000198531931   0.000406982503 -0.000198531931      0.358447127     0.911422568
12.662912            0.353824642     0.913274203   0.000407650864 -0.000199116365   0.000407650864 -0.000199116365      0.358872612      0.91123656
12.66294             0.354249069     0.913091245   0.000408320478 -0.000199702626   0.000408320478 -0.000199702626       0.35929838     0.911050173
12.662968            0.354673778     0.912907914    0.00040899135  -0.00020029072    0.00040899135  -0.00020029072      0.359724431     0.910863406
12.662996            0.355098772     0.912724207   0.000409663482 -0.000200880655   0.000409663482 -0.000200880655      0.360150766     0.910676258
12.663024            0.355524048     0.912540124   0.000410336875 -0.000201472436   0.000410336875 -0.000201472436      0.360577386     0.910488729
12.663052            0.355949609     0.912355665   0.000411011532  -0.00020206607   0.000411011532  -0.00020206607       0.36100429     0.910300817
12.66308             0.356375454     0.912170828   0.000411687456 -0.000202661563   0.000411687456 -0.000202661563      0.361431479     0.910112522
12.663108            0.356801583     0.911985613   0.000412364649 -0.000203258922   0.000412364649 -0.000203258922      0.361858952     0.909923843
12.663136            0.357227997     0.911800019   0.000413043114 -0.000203858153   0.000413043114 -0.000203858153      0.362286711     0.909734779
12.663164            0.357654696     0.911614044   0.000413722853 -0.000204459263   0.000413722852 -0.000204459263      0.362714755      0.90954533
12.663192             0.35808168     0.911427689   0.000414403867 -0.000205062258   0.000414403867 -0.000205062258      0.363143085     0.909355494
12.66322              0.35850895     0.911240952   0.000415086161 -0.000205667145   0.000415086161 -0.000205667145      0.363571701     0.909165272
12.663248            0.358936506     0.911053833   0.000415769735  -0.00020627393   0.000415769735 -0.000206273931      0.364000603      0.90897466
12.663276            0.359364347     0.910866331   0.000416454593 -0.000206882621   0.000416454593 -0.000206882621      0.364429791      0.90878366
12.663304            0.359792475     0.910678445   0.000417140737 -0.000207493223   0.000417140737 -0.000207493223      0.364859267     0.908592271
12.663332            0.360220889     0.910490174   0.000417828169 -0.000208105744   0.000417828169 -0.000208105744      0.365289029      0.90840049
12.66336             0.360649591     0.910301517   0.000418516892  -0.00020872019   0.000418516892  -0.00020872019      0.365719078     0.908208318
12.663388            0.361078579     0.910112474   0.000419206908 -0.000209336567   0.000419206908 -0.000209336568      0.366149415     0.908015754
12.663416            0.361507854     0.909923043    0.00041989822 -0.000209954884    0.00041989822 -0.000209954884       0.36658004     0.907822797
12.663444            0.361937418     0.909733224    0.00042059083 -0.000210575145    0.00042059083 -0.000210575146      0.367010953     0.907629446
12.663472            0.362367269     0.909543016   0.000421284741 -0.000211197359   0.000421284741 -0.000211197359      0.367442154       0.9074357
12.6635              0.362797408     0.909352419   0.000421979954 -0.000211821532   0.000421979954 -0.000211821532      0.367873644     0.907241558
12.663528            0.363227836     0.909161431   0.000422676473 -0.000212447671   0.000422676473 -0.000212447671      0.368305423      0.90704702
12.663556            0.363658552     0.908970051   0.000423374299 -0.000213075782   0.000423374299 -0.000213075782      0.368737491     0.906852085
12.663584            0.364089557     0.908778279   0.000424073436 -0.000213705873   0.000424073436 -0.000213705873      0.369169848     0.906656751
12.663612            0.364520851     0.908586113   0.000424773886 -0.000214337951   0.000424773886 -0.000214337951      0.369602494     0.906461018
12.66364             0.364952435     0.908393554    0.00042547565 -0.000214972022    0.00042547565 -0.000214972022      0.370035431     0.906264886
12.663668            0.365384309       0.9082006   0.000426178733 -0.000215608094   0.000426178733 -0.000215608094      0.370468658     0.906068352
12.663696            0.365816472      0.90800725   0.000426883135 -0.000216246173   0.000426883135 -0.000216246173      0.370902175     0.905871417
12.663724            0.366248926     0.907813504    0.00042758886 -0.000216886267    0.00042758886 -0.000216886267      0.371335983      0.90567408
12.663752             0.36668167      0.90761936    0.00042829591 -0.000217528382    0.00042829591 -0.000217528383      0.371770081     0.905476339
12.66378             0.367114705     0.907424818   0.000429004288 -0.000218172527   0.000429004288 -0.000218172527      0.372204471     0.905278194
12.663808            0.367548031     0.907229876   0.000429713995 -0.000218818707   0.000429713995 -0.000218818707      0.372639153     0.905079643
12.663836            0.367981649     0.907034535   0.000430425035  -0.00021946693   0.000430425035 -0.000219466931      0.373074126     0.904880687
12.663864            0.368415558     0.906838793    0.00043113741 -0.000220117204    0.00043113741 -0.000220117204      0.373509391     0.904681324
12.663892            0.368849759     0.906642649   0.000431851122 -0.000220769535   0.000431851122 -0.000220769535      0.373944948     0.904481553
12.66392             0.369284251     0.906446103   0.000432566174 -0.000221423931   0.000432566174 -0.000221423931      0.374380798     0.904281373
12.663948            0.369719037     0.906249153   0.000433282569 -0.000222080399   0.000433282568 -0.000222080399       0.37481694     0.904080784
12.663976            0.370154115     0.906051798   0.000434000308 -0.000222738946   0.000434000308 -0.000222738946      0.375253376     0.903879784
12.664004            0.370589485     0.905854039   0.000434719394  -0.00022339958   0.000434719394  -0.00022339958      0.375690105     0.903678373
12.664032            0.371025149     0.905655873    0.00043543983 -0.000224062307    0.00043543983 -0.000224062308      0.376127127      0.90347655
12.66406             0.371461107       0.9054573   0.000436161619 -0.000224727137   0.000436161619 -0.000224727137      0.376564443     0.903274314
12.664088            0.371897358      0.90525832   0.000436884762 -0.000225394074   0.000436884762 -0.000225394075      0.377002053     0.903071664
12.664116            0.372333903     0.905058931   0.000437609263 -0.000226063128   0.000437609263 -0.000226063129      0.377439958     0.902868598
12.664144            0.372770742     0.904859132   0.000438335123 -0.000226734306   0.000438335123 -0.000226734306      0.377878157     0.902665117
12.664172            0.373207876     0.904658922   0.000439062346 -0.000227407615   0.000439062346 -0.000227407615      0.378316651      0.90246122
12.6642              0.373645304     0.904458301   0.000439790933 -0.000228083063   0.000439790933 -0.000228083063      0.378755441     0.902256905
12.664228            0.374083028     0.904257268   0.000440520888 -0.000228760657   0.000440520888 -0.000228760657      0.379194525     0.902052171
12.664256            0.374521047     0.904055822   0.000441252212 -0.000229440404   0.000441252212 -0.000229440405      0.379633905     0.901847018
12.664284            0.374959361     0.903853961   0.000441984909 -0.000230122314   0.000441984909 -0.000230122314      0.380073582     0.901641444
12.664312            0.375397971     0.903651686    0.00044271898 -0.000230806392    0.00044271898 -0.000230806392      0.380513554     0.901435449
12.66434             0.375836877     0.903448994   0.000443454429 -0.000231492647   0.000443454429 -0.000231492647      0.380953823     0.901229032
12.664368             0.37627608     0.903245886   0.000444191258 -0.000232181087   0.000444191258 -0.000232181087      0.381394388     0.901022192
12.664396            0.376715579      0.90304236   0.000444929469 -0.000232871719   0.000444929469 -0.000232871719      0.381835251     0.900814928
12.664424            0.377155375     0.902838415   0.000445669065 -0.000233564551   0.000445669065 -0.000233564551      0.382276411     0.900607239
12.664452            0.377595469     0.902634051   0.000446410048 -0.000234259591   0.000446410048 -0.000234259591      0.382717868     0.900399124
12.66448             0.378035859     0.902429266   0.000447152421 -0.000234956847   0.000447152421 -0.000234956847      0.383159623     0.900190582
12.664508            0.378476548      0.90222406   0.000447896187 -0.000235656326   0.000447896187 -0.000235656326      0.383601676     0.899981612
12.664536            0.378917534     0.902018431   0.000448641347 -0.000236358036   0.000448641347 -0.000236358037      0.384044027     0.899772214
12.664564            0.379358819      0.90181238   0.000449387905 -0.000237061986   0.000449387905 -0.000237061986      0.384486677     0.899562386
12.664592            0.379800402     0.901605904   0.000450135864 -0.000237768184   0.000450135863 -0.000237768184      0.384929625     0.899352128
12.66462             0.380242283     0.901399003   0.000450885224 -0.000238476636   0.000450885224 -0.000238476636      0.385372873     0.899141437
12.664648            0.380684464     0.901191675    0.00045163599 -0.000239187352    0.00045163599 -0.000239187352       0.38581642     0.898930315
12.664676            0.381126944     0.900983921   0.000452388163 -0.000239900339   0.000452388163 -0.000239900339      0.386260267     0.898718759
12.664704            0.381569724     0.900775739   0.000453141747 -0.000240615606   0.000453141747 -0.000240615606      0.386704414     0.898506768
12.664732            0.382012803     0.900567128   0.000453896743  -0.00024133316   0.000453896743  -0.00024133316       0.38714886     0.898294343
12.66476             0.382456183     0.900358088   0.000454653155  -0.00024205301   0.000454653155 -0.000242053011      0.387593607     0.898081481
12.664788            0.382899863     0.900148616   0.000455410984 -0.000242775164   0.000455410984 -0.000242775164      0.388038655     0.897868181
12.664816            0.383343843     0.899938713   0.000456170234  -0.00024349963   0.000456170234 -0.000243499631      0.388484004     0.897654444
12.664844            0.383788125     0.899728377   0.000456930907 -0.000244226417   0.000456930907 -0.000244226417      0.388929654     0.897440267
12.664872            0.384232708     0.899517607   0.000457693005 -0.000244955532   0.000457693005 -0.000244955532      0.389375605      0.89722565
12.6649              0.384677592     0.899306403   0.000458456531 -0.000245686984   0.000458456531 -0.000245686984      0.389821858     0.897010592
12.664928            0.385122777     0.899094764   0.000459221488 -0.000246420781   0.000459221488 -0.000246420781      0.390268413     0.896795092
12.664956            0.385568265     0.898882688   0.000459987878 -0.000247156932   0.000459987878 -0.000247156932       0.39071527     0.896579149
12.664984            0.386014055     0.898670174   0.000460755704 -0.000247895445   0.000460755703 -0.000247895446       0.39116243     0.896362761
12.665012            0.386460147     0.898457222   0.000461524967 -0.000248636329   0.000461524967 -0.000248636329      0.391609893     0.896145929
12.66504             0.386906542     0.898243831   0.000462295672 -0.000249379592   0.000462295672 -0.000249379592      0.392057658     0.895928651
12.665068            0.387353241     0.898029999    0.00046306782 -0.000250125242    0.00046306782 -0.000250125242      0.392505727     0.895710925
12.665096            0.387800242     0.897815726   0.000463841414 -0.000250873288   0.000463841414 -0.000250873288        0.3929541     0.895492752
12.665124            0.388247547     0.897601011   0.000464616456 -0.000251623739   0.000464616456 -0.000251623739      0.393402776     0.895274129
12.665152            0.388695156     0.897385852    0.00046539295 -0.000252376603   0.000465392949 -0.000252376603      0.393851756     0.895055056
12.66518             0.389143069     0.897170249   0.000466170897 -0.000253131889   0.000466170896 -0.000253131889      0.394301041     0.894835533
12.665208            0.389591287     0.896954201     0.0004669503 -0.000253889606     0.0004669503 -0.000253889606       0.39475063     0.894615557
12.665236            0.390039809     0.896737706   0.000467731162 -0.000254649762   0.000467731162 -0.000254649762      0.395200525     0.894395129
12.665264            0.390488636     0.896520765   0.000468513485 -0.000255412366   0.000468513485 -0.000255412366      0.395650724     0.894174246
12.665292            0.390937768     0.896303375   0.000469297272 -0.000256177427   0.000469297272 -0.000256177427      0.396101229     0.893952908
12.66532             0.391387205     0.896085535   0.000470082526 -0.000256944953   0.000470082526 -0.000256944953       0.39655204     0.893731114
12.665348            0.391836948     0.895867246   0.000470869249 -0.000257714954   0.000470869249 -0.000257714954      0.397003156     0.893508864
12.665376            0.392286998     0.895648505   0.000471657443 -0.000258487438   0.000471657443 -0.000258487439      0.397454579     0.893286155
12.665404            0.392737353     0.895429312   0.000472447112 -0.000259262415   0.000472447112 -0.000259262415      0.397906308     0.893062986