! TOUCHSTONE file generated by CST MICROWAVE STUDIO
! Date and time: Wed Jul 31 10:46:52 2024
! Project name: WaveGuide_BPF-Ver4.1_U-shape_Ku_T3_C4_CWA_2.cst
! Parameters = {cavity_h=16; cavity_l0=10; cavity_l1=15.2085; cavity_l2=16.8552; cavity_l3=17.0799; cavity_l4=17.2599; cavity_l5=17.1325; cavity_l6=17.639; cavity_r=2.5; cavity_screw_l=0.5; cavity_screw_r=1.5; cavity_w=8; iris_h00=0; iris_h01=8.8243; iris_h112=0; iris_h12=5.6035; iris_h211=3.6643; iris_h23=5.189; iris_h310=3.9638; iris_h34=5.0735; iris_h45=4.9277; iris_h49=4.6184; iris_h56=4.7977; iris_h58=4.4304; iris_h67=6.5895; iris_rx=0.1; iris_screw_l=0.5; iris_screw_r=1.5; iris_shift00=0; iris_shift112=0; iris_shift211=3.5; iris_shift310=0; iris_shift49=0; iris_shift58=3.5; iris_shift67=3.5; iris_tx=4.5; iris_tz=4.5; iris_w00=0; iris_w112=0; iris_w211=4; iris_w310=3.9638; iris_w49=4.6184; iris_w58=4; iris_w67=4; mesh_cavity=5; mesh_iris=7; mesh_screw=7; order=12; reset_all=0; sigma=4.8e+07}
! Header version: 2018
! Port assignment regex: !\s*Touchstone port\s*([0-9]+)\s*=\s*(CST MWS port|CST DS port)\s*([0-9]+|Zmin|Zmax)\s*\(\"(.*)\"\)(\s*mode\s*([0-9]+))?.*
! Touchstone port assignment:
! Touchstone port 1 = CST MWS port 1 ("")
! Touchstone port 2 = CST MWS port 2 ("")
# GHz S RI R 50
12.66                0.379971825     0.902078795   0.000283492302 -0.000145087389   0.000283492302 -0.000145087389      0.382177369     0.901165046
12.660028            0.380403642     0.901879291   0.000283891454 -0.000145475774   0.000283891454 -0.000145475774      0.382608902     0.900964424
12.660056            0.380835706     0.901679407   0.000284291194 -0.000145865236   0.000284291193 -0.000145865236      0.383040729     0.900763401
12.660084            0.381268017     0.901479144   0.000284691523 -0.000146255774   0.000284691523 -0.000146255774      0.383472829     0.900561987
12.660112            0.381700575       0.9012785   0.000285092446  -0.00014664739   0.000285092446  -0.00014664739      0.383905182     0.900360189
12.66014             0.382133379     0.901077475   0.000285493967 -0.000147040084   0.000285493967 -0.000147040085      0.384337767     0.900158015
12.660168             0.38256643     0.900876068   0.000285896087  -0.00014743386   0.000285896087  -0.00014743386      0.384770583     0.899955464
12.660196            0.382999728      0.90067428   0.000286298804 -0.000147828722   0.000286298804 -0.000147828722      0.385203646      0.89975253
12.660224            0.383433274     0.900472108   0.000286702118 -0.000148224674   0.000286702118 -0.000148224674      0.385636955     0.899549212
12.660252            0.383867066     0.900269552   0.000287106031 -0.000148621719   0.000287106031 -0.000148621719       0.38607051     0.899345509
12.66028             0.384301106     0.900066611   0.000287510543 -0.000149019859   0.000287510543 -0.000149019859      0.386504312     0.899141421
12.660308            0.384735393     0.899863286   0.000287915656 -0.000149419099   0.000287915655   -0.0001494191       0.38693836     0.898936947
12.660336            0.385169928     0.899659574   0.000288321368 -0.000149819442   0.000288321368 -0.000149819442      0.387372654     0.898732086
12.660364            0.385604711     0.899455476   0.000288727682 -0.000150220891   0.000288727682 -0.000150220891      0.387807196     0.898526838
12.660392            0.386039742      0.89925099   0.000289134598 -0.000150623449   0.000289134598 -0.000150623449      0.388241984     0.898321202
12.66042              0.38647502     0.899046116   0.000289542117 -0.000151027119   0.000289542117 -0.000151027119      0.388677019     0.898115176
12.660448            0.386910546     0.898840853   0.000289950239 -0.000151431905   0.000289950239 -0.000151431906      0.389112301     0.897908761
12.660476            0.387346321     0.898635201   0.000290358965 -0.000151837811   0.000290358964 -0.000151837811       0.38954783     0.897701956
12.660504            0.387782344     0.898429158   0.000290768295 -0.000152244839   0.000290768295 -0.000152244839      0.389983606      0.89749476
12.660532            0.388218615     0.898222725   0.000291178231 -0.000152652993   0.000291178231 -0.000152652993       0.39041963     0.897287172
12.66056             0.388655135       0.8980159   0.000291588773 -0.000153062276   0.000291588773 -0.000153062276      0.390855901     0.897079191
12.660588            0.389091903     0.897808682   0.000291999922 -0.000153472691   0.000291999922 -0.000153472692      0.391292419     0.896870817
12.660616             0.38952892     0.897601071   0.000292411678 -0.000153884243   0.000292411678 -0.000153884243      0.391729185     0.896662049
12.660644            0.389966186     0.897393066   0.000292824042 -0.000154296934   0.000292824042 -0.000154296934      0.392166199     0.896452887
12.660672            0.390403701     0.897184666   0.000293237016 -0.000154710768   0.000293237015 -0.000154710768      0.392603461     0.896243329
12.6607              0.390841465     0.896975872   0.000293650598 -0.000155125748   0.000293650598 -0.000155125748      0.393040971     0.896033375
12.660728            0.391279478      0.89676668   0.000294064791 -0.000155541878   0.000294064791 -0.000155541878      0.393478729     0.895823024
12.660756             0.39171774     0.896557093   0.000294479594  -0.00015595916   0.000294479594 -0.000155959161      0.393916735     0.895612276
12.660784            0.392156251     0.896347107   0.000294895009   -0.0001563776   0.000294895009   -0.0001563776      0.394354989     0.895401129
12.660812            0.392595012     0.896136723   0.000295311036 -0.000156797199   0.000295311036 -0.000156797199      0.394793492     0.895189583
12.66084             0.393034023      0.89592594   0.000295727676 -0.000157217962   0.000295727676 -0.000157217962      0.395232243     0.894977637
12.660868            0.393473283     0.895714758    0.00029614493 -0.000157639891   0.000296144929 -0.000157639891      0.395671242     0.894765291
12.660896            0.393912793     0.895503175   0.000296562797 -0.000158062991   0.000296562797 -0.000158062991      0.396110491     0.894552543
12.660924            0.394352553      0.89529119    0.00029698128 -0.000158487265   0.000296981279 -0.000158487265      0.396549988     0.894339393
12.660952            0.394792563     0.895078803   0.000297400378 -0.000158912716   0.000297400377 -0.000158912716      0.396989734      0.89412584
12.66098             0.395232823     0.894866014   0.000297820092 -0.000159339349   0.000297820091 -0.000159339349      0.397429729     0.893911884
12.661008            0.395673333     0.894652821   0.000298240423 -0.000159767165   0.000298240422 -0.000159767165      0.397869973     0.893697524
12.661036            0.396114093     0.894439224   0.000298661371  -0.00016019617   0.000298661371  -0.00016019617      0.398310467     0.893482758
12.661064            0.396555104     0.894225222   0.000299082937 -0.000160626366   0.000299082937 -0.000160626367      0.398751209     0.893267587
12.661092            0.396996366     0.894010814   0.000299505123 -0.000161057758   0.000299505123 -0.000161057758      0.399192201     0.893052009
12.66112             0.397437877     0.893795999   0.000299927928 -0.000161490348   0.000299927927 -0.000161490349      0.399633443     0.892836024
12.661148             0.39787964     0.893580777   0.000300351353 -0.000161924141   0.000300351352 -0.000161924141      0.400074934     0.892619631
12.661176            0.398321654     0.893365147   0.000300775398  -0.00016235914   0.000300775398  -0.00016235914      0.400516675     0.892402829
12.661204            0.398763918     0.893149108   0.000301200065 -0.000162795348   0.000301200065 -0.000162795348      0.400958665     0.892185617
12.661232            0.399206433      0.89293266   0.000301625355 -0.000163232769   0.000301625355  -0.00016323277      0.401400906     0.891967995
12.66126               0.3996492     0.892715801   0.000302051267 -0.000163671408   0.000302051267 -0.000163671408      0.401843396     0.891749962
12.661288            0.400092218     0.892498531   0.000302477802 -0.000164111266   0.000302477802 -0.000164111267      0.402286137     0.891531517
12.661316            0.400535487     0.892280849   0.000302904961 -0.000164552349   0.000302904961  -0.00016455235      0.402729127     0.891312659
12.661344            0.400979007     0.892062754   0.000303332746  -0.00016499466   0.000303332745  -0.00016499466      0.403172368     0.891093388
12.661372            0.401422779     0.891844246   0.000303761155 -0.000165438202   0.000303761155 -0.000165438203      0.403615859     0.890873702
12.6614              0.401866803     0.891625324   0.000304190191  -0.00016588298    0.00030419019  -0.00016588298      0.404059601     0.890653602
12.661428            0.402311078     0.891405987   0.000304619853 -0.000166328997   0.000304619852 -0.000166328997      0.404503594     0.890433086
12.661456            0.402755605     0.891186234   0.000305050142 -0.000166776256   0.000305050142 -0.000166776256      0.404947837     0.890212153
12.661484            0.403200384     0.890966064   0.000305481059 -0.000167224761   0.000305481059 -0.000167224761       0.40539233     0.889990803
12.661512            0.403645415     0.890745478   0.000305912605 -0.000167674517   0.000305912605 -0.000167674517      0.405837075     0.889769035
12.66154             0.404090698     0.890524473    0.00030634478 -0.000168125527    0.00030634478 -0.000168125527       0.40628207     0.889546848
12.661568            0.404536233     0.890303049   0.000306777585 -0.000168577794   0.000306777585 -0.000168577794      0.406727317     0.889324242
12.661596            0.404982021     0.890081205    0.00030721102 -0.000169031323    0.00030721102 -0.000169031323      0.407172815     0.889101215
12.661624            0.405428061     0.889858941   0.000307645086 -0.000169486117   0.000307645086 -0.000169486117      0.407618563     0.888877767
12.661652            0.405874354     0.889636256   0.000308079784  -0.00016994218   0.000308079784  -0.00016994218      0.408064563     0.888653896
12.66168             0.406320899     0.889413148   0.000308515115 -0.000170399516   0.000308515115 -0.000170399517      0.408510815     0.888429603
12.661708            0.406767696     0.889189618   0.000308951078 -0.000170858129   0.000308951078 -0.000170858129      0.408957318     0.888204887
12.661736            0.407214747     0.888965664   0.000309387675 -0.000171318023   0.000309387675 -0.000171318023      0.409404073     0.887979746
12.661764             0.40766205     0.888741286   0.000309824906 -0.000171779201   0.000309824906 -0.000171779201      0.409851079      0.88775418
12.661792            0.408109606     0.888516483   0.000310262772 -0.000172241667   0.000310262772 -0.000172241667      0.410298337     0.887528188
12.66182             0.408557416     0.888291253   0.000310701274 -0.000172705425   0.000310701274 -0.000172705425      0.410745847     0.887301769
12.661848            0.409005478     0.888065597   0.000311140412  -0.00017317048   0.000311140411  -0.00017317048      0.411193608     0.887074923
12.661876            0.409453794     0.887839513   0.000311580186 -0.000173636834   0.000311580186 -0.000173636835      0.411641622     0.886847648
12.661904            0.409902363     0.887613001   0.000312020597 -0.000174104493   0.000312020597 -0.000174104493      0.412089888     0.886619944
12.661932            0.410351185     0.887386059   0.000312461647 -0.000174573459   0.000312461647 -0.000174573459      0.412538406      0.88639181
12.66196             0.410800261     0.887158687   0.000312903335 -0.000175043737   0.000312903335 -0.000175043738      0.412987177     0.886163245
12.661988            0.411249591     0.886930885   0.000313345662 -0.000175515331   0.000313345662 -0.000175515332      0.413436199     0.885934249
12.662016            0.411699174     0.886702651   0.000313788629 -0.000175988245   0.000313788629 -0.000175988245      0.413885474      0.88570482
12.662044            0.412149011     0.886473984   0.000314232237 -0.000176462483   0.000314232236 -0.000176462483      0.414335002     0.885474958
12.662072            0.412599101     0.886244884   0.000314676485 -0.000176938048   0.000314676485 -0.000176938048      0.414784782     0.885244662
12.6621              0.413049446      0.88601535   0.000315121375 -0.000177414945   0.000315121375 -0.000177414945      0.415234815     0.885013932
12.662128            0.413500045     0.885785381   0.000315566907 -0.000177893177   0.000315566907 -0.000177893178      0.415685101     0.884782765
12.662156            0.413950898     0.885554977   0.000316013082  -0.00017837275   0.000316013082  -0.00017837275       0.41613564     0.884551162
12.662184            0.414402005     0.885324135     0.0003164599 -0.000178853666     0.0003164599 -0.000178853667      0.416586431     0.884319122
12.662212            0.414853366     0.885092857   0.000316907362 -0.000179335931   0.000316907362 -0.000179335931      0.417037476     0.884086644
12.66224             0.415304982      0.88486114   0.000317355469 -0.000179819547   0.000317355469 -0.000179819547      0.417488774     0.883853726
12.662268            0.415756852     0.884628984   0.000317804221  -0.00018030452    0.00031780422  -0.00018030452      0.417940325     0.883620369
12.662296            0.416208977     0.884396388   0.000318253618 -0.000180790852   0.000318253618 -0.000180790853      0.418392129     0.883386572
12.662324            0.416661356     0.884163352   0.000318703662 -0.000181278549   0.000318703662  -0.00018127855      0.418844186     0.883152333
12.662352             0.41711399     0.883929874   0.000319154353 -0.000181767615   0.000319154353 -0.000181767615      0.419296497     0.882917651
12.66238             0.417566879     0.883695953   0.000319605691 -0.000182258053   0.000319605691 -0.000182258053      0.419749062     0.882682527
12.662408            0.418020022      0.88346159   0.000320057677 -0.000182749868   0.000320057677 -0.000182749868       0.42020188     0.882446958
12.662436            0.418473421     0.883226782   0.000320510312 -0.000183243064   0.000320510312 -0.000183243064      0.420654952     0.882210945
12.662464            0.418927075      0.88299153   0.000320963596 -0.000183737645   0.000320963596 -0.000183737645      0.421108277     0.881974487
12.662492            0.419380983     0.882755831    0.00032141753 -0.000184233615    0.00032141753 -0.000184233615      0.421561857     0.881737581
12.66252             0.419835147     0.882519687   0.000321872114 -0.000184730979   0.000321872114 -0.000184730979       0.42201569     0.881500229
12.662548            0.420289567     0.882283094   0.000322327349  -0.00018522974   0.000322327349  -0.00018522974      0.422469777     0.881262428
12.662576            0.420744241     0.882046054   0.000322783236 -0.000185729904   0.000322783236 -0.000185729904      0.422924118     0.881024179
12.662604            0.421199171     0.881808564   0.000323239775 -0.000186231474   0.000323239774 -0.000186231474      0.423378714     0.880785479
12.662632            0.421654357     0.881570625   0.000323696966 -0.000186734454   0.000323696966 -0.000186734454      0.423833563     0.880546329
12.66266             0.422109798     0.881332234    0.00032415481 -0.000187238849    0.00032415481 -0.000187238849      0.424288667     0.880306727
12.662688            0.422565495     0.881093392   0.000324613308 -0.000187744663   0.000324613308 -0.000187744663      0.424744025     0.880066673
12.662716            0.423021447     0.880854098   0.000325072461 -0.000188251901    0.00032507246 -0.000188251901      0.425199638     0.879826166
12.662744            0.423477656      0.88061435   0.000325532268 -0.000188760566   0.000325532268 -0.000188760566      0.425655505     0.879585205
12.662772             0.42393412     0.880374147    0.00032599273 -0.000189270664    0.00032599273 -0.000189270664      0.426111627     0.879343788
12.6628               0.42439084      0.88013349   0.000326453849 -0.000189782198   0.000326453849 -0.000189782198      0.426568003     0.879101916
12.662828            0.424847816     0.879892377   0.000326915624 -0.000190295172   0.000326915623 -0.000190295172      0.427024634     0.878859587
12.662856            0.425305049     0.879650807   0.000327378055 -0.000190809592   0.000327378055 -0.000190809592       0.42748152     0.878616801
12.662884            0.425762537     0.879408779   0.000327841145 -0.000191325461   0.000327841145 -0.000191325462       0.42793866     0.878373556
12.662912            0.426220282     0.879166293   0.000328304892 -0.000191842785   0.000328304892 -0.000191842785      0.428396056     0.878129852
12.66294             0.426678283     0.878923347   0.000328769298 -0.000192361567   0.000328769298 -0.000192361567      0.428853706     0.877885688
12.662968            0.427136541     0.878679941   0.000329234363 -0.000192881811   0.000329234363 -0.000192881811      0.429311612     0.877641062
12.662996            0.427595055     0.878436073   0.000329700088 -0.000193403523   0.000329700088 -0.000193403523      0.429769772     0.877395975
12.663024            0.428053825     0.878191744   0.000330166473 -0.000193926707   0.000330166473 -0.000193926707      0.430228188     0.877150425
12.663052            0.428512852     0.877946951   0.000330633518 -0.000194451367   0.000330633518 -0.000194451367      0.430686859     0.876904412
12.66308             0.428972136     0.877701695   0.000331101225 -0.000194977507   0.000331101225 -0.000194977507      0.431145786     0.876657934
12.663108            0.429431677     0.877455974   0.000331569594 -0.000195505133   0.000331569594 -0.000195505133      0.431604967      0.87641099
12.663136            0.429891474     0.877209788   0.000332038625 -0.000196034249   0.000332038624 -0.000196034249      0.432064405      0.87616358
12.663164            0.430351528     0.876963135   0.000332508318 -0.000196564859   0.000332508318 -0.000196564859      0.432524097     0.875915703
12.663192             0.43081184     0.876716014   0.000332978675 -0.000197096968   0.000332978675 -0.000197096968      0.432984045     0.875667358
12.66322             0.431272408     0.876468425   0.000333449695  -0.00019763058   0.000333449695  -0.00019763058      0.433444249     0.875418544
12.663248            0.431733233     0.876220368    0.00033392138   -0.0001981657    0.00033392138   -0.0001981657      0.433904709      0.87516926
12.663276            0.432194316      0.87597184   0.000334393729 -0.000198702333   0.000334393729 -0.000198702333      0.434365424     0.874919505
12.663304            0.432655655     0.875722841   0.000334866744 -0.000199240483   0.000334866744 -0.000199240483      0.434826395     0.874669279
12.663332            0.433117252      0.87547337   0.000335340425 -0.000199780155   0.000335340424 -0.000199780155      0.435287622      0.87441858
12.66336             0.433579107     0.875223427   0.000335814771 -0.000200321354   0.000335814771 -0.000200321354      0.435749105     0.874167408
12.663388            0.434041219      0.87497301   0.000336289785 -0.000200864083   0.000336289784 -0.000200864084      0.436210844     0.873915761
12.663416            0.434503588     0.874722118   0.000336765465 -0.000201408349   0.000336765465 -0.000201408349      0.436672839     0.873663639
12.663444            0.434966214     0.874470751   0.000337241813 -0.000201954155   0.000337241813 -0.000201954155       0.43713509     0.873411041
12.663472            0.435429099     0.874218907    0.00033771883 -0.000202501506    0.00033771883 -0.000202501507      0.437597597     0.873157966
12.6635              0.435892241     0.873966586   0.000338196515 -0.000203050408   0.000338196515 -0.000203050408      0.438060361     0.872904413
12.663528             0.43635564     0.873713787   0.000338674869 -0.000203600864   0.000338674869 -0.000203600864       0.43852338     0.872650381
12.663556            0.436819298     0.873460509   0.000339153892 -0.000204152879   0.000339153892 -0.000204152879      0.438986656     0.872395869
12.663584            0.437283213     0.873206751   0.000339633586 -0.000204706459   0.000339633586 -0.000204706459      0.439450189     0.872140876
12.663612            0.437747386     0.872952512    0.00034011395 -0.000205261608    0.00034011395 -0.000205261608      0.439913977     0.871885402
12.66364             0.438211817     0.872697791   0.000340594985  -0.00020581833   0.000340594985  -0.00020581833      0.440378023     0.871629445
12.663668            0.438676506     0.872442587   0.000341076691 -0.000206376631   0.000341076691 -0.000206376632      0.440842324     0.871373005
12.663696            0.439141453     0.872186899    0.00034155907 -0.000206936516    0.00034155907 -0.000206936516      0.441306883     0.871116081
12.663724            0.439606658     0.871930727    0.00034204212 -0.000207497989    0.00034204212 -0.000207497989      0.441771698     0.870858671
12.663752            0.440072122     0.871674069   0.000342525843 -0.000208061055   0.000342525843 -0.000208061055      0.442236769     0.870600775
12.66378             0.440537843     0.871416925    0.00034301024 -0.000208625719   0.000343010239 -0.000208625719      0.442702098     0.870342391
12.663808            0.441003823     0.871159293    0.00034349531 -0.000209191986   0.000343495309 -0.000209191986      0.443167683      0.87008352
12.663836            0.441470061     0.870901173   0.000343981054 -0.000209759861   0.000343981053 -0.000209759861      0.443633525     0.869824159
12.663864            0.441936558     0.870642564   0.000344467472 -0.000210329349   0.000344467472 -0.000210329349      0.444099624     0.869564309
12.663892            0.442403312     0.870383464   0.000344954565 -0.000210900454   0.000344954565 -0.000210900455      0.444565979     0.869303968
12.66392             0.442870326     0.870123873   0.000345442334 -0.000211473183   0.000345442333 -0.000211473183      0.445032592     0.869043134
12.663948            0.443337598      0.86986379   0.000345930778 -0.000212047538   0.000345930778 -0.000212047539      0.445499462     0.868781808
12.663976            0.443805128     0.869603214   0.000346419898 -0.000212623527   0.000346419898 -0.000212623527      0.445966589     0.868519989
12.664004            0.444272917     0.869342144   0.000346909695 -0.000213201153   0.000346909695 -0.000213201153      0.446433973     0.868257674
12.664032            0.444740965     0.869080579   0.000347400169 -0.000213780422   0.000347400169 -0.000213780422      0.446901614     0.867994864
12.66406             0.445209271     0.868818517    0.00034789132 -0.000214361338    0.00034789132 -0.000214361338      0.447369512     0.867731557
12.664088            0.445677836     0.868555959   0.000348383149 -0.000214943908   0.000348383148 -0.000214943908      0.447837667     0.867467753
12.664116             0.44614666     0.868292904   0.000348875655 -0.000215528135   0.000348875655 -0.000215528135       0.44830608      0.86720345
12.664144            0.446615743     0.868029349   0.000349368841 -0.000216114025   0.000349368841 -0.000216114025       0.44877475     0.866938648
12.664172            0.447085084     0.867765295   0.000349862705 -0.000216701583   0.000349862705 -0.000216701583      0.449243677     0.866673345
12.6642              0.447554685     0.867500739   0.000350357249 -0.000217290814   0.000350357249 -0.000217290815      0.449712862     0.866407541
12.664228            0.448024544     0.867235683   0.000350852472 -0.000217881724   0.000350852472 -0.000217881724      0.450182304     0.866141235
12.664256            0.448494663     0.866970123   0.000351348375 -0.000218474317   0.000351348375 -0.000218474317      0.450652004     0.865874425
12.664284             0.44896504      0.86670406   0.000351844959 -0.000219068599   0.000351844959 -0.000219068599      0.451121961     0.865607112
12.664312            0.449435677     0.866437492   0.000352342223 -0.000219664575   0.000352342223 -0.000219664575      0.451592175     0.865339292
12.66434             0.449906573     0.866170419   0.000352840169 -0.000220262249   0.000352840168  -0.00022026225      0.452062647     0.865070967
12.664368            0.450377728     0.865902839   0.000353338795 -0.000220861628   0.000353338795 -0.000220861629      0.452533377     0.864802134
12.664396            0.450849142     0.865634751   0.000353838104 -0.000221462717   0.000353838104 -0.000221462717      0.453004364     0.864532794
12.664424            0.451320815     0.865366155   0.000354338095  -0.00022206552   0.000354338095 -0.000222065521      0.453475609     0.864262944
12.664452            0.451792748      0.86509705   0.000354838769 -0.000222670044   0.000354838768 -0.000222670044      0.453947112     0.863992584
12.66448              0.45226494     0.864827434   0.000355340125 -0.000223276293   0.000355340125 -0.000223276293      0.454418872     0.863721713
12.664508            0.452737391     0.864557307   0.000355842164 -0.000223884272   0.000355842164 -0.000223884272      0.454890891      0.86345033
12.664536            0.453210101     0.864286667   0.000356344887 -0.000224493988   0.000356344887 -0.000224493988      0.455363167     0.863178433
12.664564            0.453683071     0.864015514   0.000356848294 -0.000225105444   0.000356848294 -0.000225105445        0.4558357     0.862906023
12.664592            0.454156301     0.863743846   0.000357352385 -0.000225718648   0.000357352385 -0.000225718648      0.456308492     0.862633098
12.66462              0.45462979     0.863471663    0.00035785716 -0.000226333604    0.00035785716 -0.000226333604      0.456781541     0.862359656
12.664648            0.455103538     0.863198963    0.00035836262 -0.000226950317    0.00035836262 -0.000226950317      0.457254848     0.862085698
12.664676            0.455577546     0.862925746   0.000358868765 -0.000227568793   0.000358868765 -0.000227568793      0.457728414     0.861811221
12.664704            0.456051814     0.862652011   0.000359375596 -0.000228189037   0.000359375596 -0.000228189038      0.458202237     0.861536226
12.664732            0.456526341     0.862377756   0.000359883112 -0.000228811056   0.000359883112 -0.000228811056      0.458676318      0.86126071
12.66476             0.457001127     0.862102981   0.000360391314 -0.000229434853   0.000360391314 -0.000229434853      0.459150657     0.860984674
12.664788            0.457476174     0.861827684   0.000360900203 -0.000230060436   0.000360900203 -0.000230060436      0.459625254     0.860708115
12.664816             0.45795148     0.861551864   0.000361409778 -0.000230687808   0.000361409778 -0.000230687808      0.460100109     0.860431033
12.664844            0.458427045     0.861275522    0.00036192004 -0.000231316977    0.00036192004 -0.000231316977      0.460575222     0.860153427
12.664872            0.458902871     0.860998655   0.000362430989 -0.000231947947   0.000362430988 -0.000231947947      0.461050593     0.859875296
12.6649              0.459378956     0.860721262   0.000362942625 -0.000232580723   0.000362942625 -0.000232580724      0.461526222     0.859596639
12.664928              0.4598553     0.860443343   0.000363454949 -0.000233215313   0.000363454949 -0.000233215313       0.46200211     0.859317455
12.664956            0.460331905     0.860164896   0.000363967961  -0.00023385172    0.00036396796  -0.00023385172      0.462478255     0.859037743
12.664984            0.460808769      0.85988592    0.00036448166 -0.000234489951    0.00036448166 -0.000234489951      0.462954658     0.858757501
12.665012            0.461285894     0.859606415   0.000364996049 -0.000235130012   0.000364996048 -0.000235130012       0.46343132      0.85847673
12.66504             0.461763278      0.85932638   0.000365511126 -0.000235771907   0.000365511125 -0.000235771907       0.46390824     0.858195427
12.665068            0.462240922     0.859045812   0.000366026891 -0.000236415643   0.000366026891 -0.000236415643      0.464385418     0.857913591
12.665096            0.462718825     0.858764712   0.000366543346 -0.000237061226   0.000366543346 -0.000237061226      0.464862854     0.857631223
12.665124            0.463196989     0.858483079    0.00036706049 -0.000237708661    0.00036706049 -0.000237708661      0.465340548      0.85734832
12.665152            0.463675413      0.85820091   0.000367578324 -0.000238357953   0.000367578323 -0.000238357953      0.465818501     0.857064882
12.66518             0.464154096     0.857918206   0.000368096847 -0.000239009109   0.000368096847 -0.000239009109      0.466296712     0.856780908
12.665208            0.464633039     0.857634964    0.00036861606 -0.000239662135    0.00036861606 -0.000239662135       0.46677518     0.856496396
12.665236            0.465112243     0.857351185   0.000369135964 -0.000240317035   0.000369135963 -0.000240317035      0.467253908     0.856211345
12.665264            0.465591706     0.857066867   0.000369656557 -0.000240973817   0.000369656557 -0.000240973817      0.467732893     0.855925755
12.665292            0.466071429     0.856782009   0.000370177842 -0.000241632485   0.000370177842 -0.000241632485      0.468212137     0.855639625
12.66532             0.466551412      0.85649661   0.000370699817 -0.000242293046   0.000370699817 -0.000242293046      0.468691638     0.855352953
12.665348            0.467031655     0.856210669   0.000371222483 -0.000242955505   0.000371222483 -0.000242955506      0.469171398     0.855065738
12.665376            0.467512159     0.855924184    0.00037174584 -0.000243619869    0.00037174584 -0.000243619869      0.469651417      0.85477798
12.665404            0.467992922     0.855637156   0.000372269888 -0.000244286143   0.000372269888 -0.000244286143      0.470131693     0.854489676