! TOUCHSTONE file generated by CST MICROWAVE STUDIO
! Date and time: Wed Jul 31 11:05:41 2024
! Project name: WaveGuide_BPF-Ver4.1_U-shape_Ku_T3_C4_CWA_2.cst
! Parameters = {cavity_h=16; cavity_l0=10; cavity_l1=15.1724; cavity_l2=16.8158; cavity_l3=17.0746; cavity_l4=17.309; cavity_l5=17.1569; cavity_l6=17.57; cavity_r=2.5; cavity_screw_l=0.5; cavity_screw_r=1.5; cavity_w=8; iris_h00=0; iris_h01=8.811; iris_h112=0; iris_h12=5.594; iris_h211=3.6688; iris_h23=5.203; iris_h310=3.977; iris_h34=5.0749; iris_h45=4.9189; iris_h49=4.6101; iris_h56=4.8017; iris_h58=4.4401; iris_h67=6.5737; iris_rx=0.1; iris_screw_l=0.5; iris_screw_r=1.5; iris_shift00=0; iris_shift112=0; iris_shift211=3.5; iris_shift310=0; iris_shift49=0; iris_shift58=3.5; iris_shift67=3.5; iris_tx=4.5; iris_tz=4.5; iris_w00=0; iris_w112=0; iris_w211=4; iris_w310=3.977; iris_w49=4.6101; iris_w58=4; iris_w67=4; mesh_cavity=5; mesh_iris=7; mesh_screw=7; order=12; reset_all=0; sigma=4.8e+07}
! Header version: 2018
! Port assignment regex: !\s*Touchstone port\s*([0-9]+)\s*=\s*(CST MWS port|CST DS port)\s*([0-9]+|Zmin|Zmax)\s*\(\"(.*)\"\)(\s*mode\s*([0-9]+))?.*
! Touchstone port assignment:
! Touchstone port 1 = CST MWS port 1 ("")
! Touchstone port 2 = CST MWS port 2 ("")
# GHz S RI R 50
12.66                0.203702128     0.963645825   0.000146393972 -4.00288587e-05   0.000146393971 -4.00288585e-05      0.198218673     0.964933186
12.660028            0.204024126     0.963568871   0.000146583613 -4.01363173e-05   0.000146583613 -4.01363171e-05      0.198537383     0.964858996
12.660056            0.204346366     0.963491742   0.000146773531 -4.02440563e-05   0.000146773531 -4.02440561e-05      0.198856383     0.964784626
12.660084             0.20466882     0.963414444   0.000146963729 -4.03520709e-05   0.000146963728 -4.03520706e-05      0.199175623     0.964710086
12.660112            0.204991459     0.963336983   0.000147154209 -4.04603561e-05   0.000147154209 -4.04603558e-05      0.199495053     0.964635385
12.66014             0.205314255     0.963259364   0.000147344976  -4.0568907e-05   0.000147344975 -4.05689068e-05      0.199814622     0.964560534
12.660168            0.205637207     0.963181587   0.000147536029 -4.06777244e-05   0.000147536029 -4.06777242e-05      0.200134332     0.964485532
12.660196            0.205960334     0.963103647   0.000147727367 -4.07868127e-05   0.000147727367 -4.07868124e-05      0.200454214     0.964410373
12.660224            0.206283637     0.963025546   0.000147918992 -4.08961725e-05   0.000147918991 -4.08961723e-05      0.200774271     0.964335055
12.660252            0.206607117     0.962947281   0.000148110902 -4.10058047e-05   0.000148110902 -4.10058044e-05      0.201094501     0.964259579
12.66028             0.206930772     0.962868853   0.000148303099 -4.11157098e-05   0.000148303098 -4.11157096e-05      0.201414905     0.964183945
12.660308            0.207254604     0.962790263   0.000148495583 -4.12258887e-05   0.000148495582 -4.12258885e-05      0.201735483     0.964108152
12.660336            0.207578612     0.962711508   0.000148688354 -4.13363421e-05   0.000148688354 -4.13363419e-05      0.202056235       0.9640322
12.660364            0.207902797      0.96263259   0.000148881413 -4.14470706e-05   0.000148881413 -4.14470704e-05      0.202377162     0.963956089
12.660392            0.208227158     0.962553508   0.000149074761  -4.1558075e-05   0.000149074761 -4.15580748e-05      0.202698263     0.963879819
12.66042             0.208551697     0.962474261   0.000149268398 -4.16693561e-05   0.000149268397 -4.16693558e-05      0.203019538     0.963803388
12.660448            0.208876412      0.96239485   0.000149462323 -4.17809144e-05   0.000149462323 -4.17809142e-05      0.203340988     0.963726798
12.660476            0.209201304     0.962315274   0.000149656539 -4.18927509e-05   0.000149656539 -4.18927506e-05      0.203662613     0.963650047
12.660504            0.209526374     0.962235532   0.000149851045 -4.20048661e-05   0.000149851044 -4.20048658e-05      0.203984413     0.963573136
12.660532            0.209851621     0.962155626   0.000150045841 -4.21172608e-05   0.000150045841 -4.21172606e-05      0.204306388     0.963496064
12.66056             0.210177046     0.962075553   0.000150240929 -4.22299359e-05   0.000150240929 -4.22299356e-05      0.204628538     0.963418831
12.660588            0.210502648     0.961995315   0.000150436308 -4.23428919e-05   0.000150436308 -4.23428916e-05      0.204950864     0.963341437
12.660616            0.210828428     0.961914911   0.000150631979 -4.24561296e-05   0.000150631979 -4.24561294e-05      0.205273365     0.963263881
12.660644            0.211154386      0.96183434   0.000150827943 -4.25696498e-05   0.000150827943 -4.25696496e-05      0.205596042     0.963186163
12.660672            0.211480522     0.961753602     0.0001510242 -4.26834533e-05   0.000151024199  -4.2683453e-05      0.205918895     0.963108283
12.6607              0.211806836     0.961672697    0.00015122075 -4.27975406e-05    0.00015122075 -4.27975404e-05      0.206241923     0.963030241
12.660728            0.212133328     0.961591625   0.000151417594 -4.29119127e-05   0.000151417594 -4.29119125e-05      0.206565128     0.962952036
12.660756            0.212459999     0.961510386   0.000151614732 -4.30265703e-05   0.000151614732 -4.30265701e-05      0.206888509     0.962873668
12.660784            0.212786849     0.961428978   0.000151812166  -4.3141514e-05   0.000151812165 -4.31415138e-05      0.207212066     0.962795138
12.660812            0.213113877     0.961347403   0.000152009894 -4.32567448e-05   0.000152009894 -4.32567445e-05      0.207535799     0.962716444
12.66084             0.213441085     0.961265659   0.000152207918 -4.33722632e-05   0.000152207918 -4.33722629e-05       0.20785971     0.962637586
12.660868            0.213768471     0.961183747   0.000152406239 -4.34880701e-05   0.000152406239 -4.34880698e-05      0.208183797     0.962558564
12.660896            0.214096037     0.961101665   0.000152604856 -4.36041662e-05   0.000152604856 -4.36041659e-05      0.208508061     0.962479378
12.660924            0.214423781     0.961019415    0.00015280377 -4.37205523e-05    0.00015280377  -4.3720552e-05      0.208832501     0.962400028
12.660952            0.214751706     0.960936995   0.000153002982 -4.38372291e-05   0.000153002982 -4.38372288e-05       0.20915712     0.962320512
12.66098              0.21507981     0.960854405   0.000153202492 -4.39541974e-05   0.000153202492 -4.39541972e-05      0.209481915     0.962240832
12.661008            0.215408093     0.960771645   0.000153402301 -4.40714581e-05   0.000153402301 -4.40714578e-05      0.209806888     0.962160987
12.661036            0.215736557     0.960688715   0.000153602409 -4.41890118e-05   0.000153602408 -4.41890115e-05      0.210132038     0.962080976
12.661064              0.2160652     0.960605614   0.000153802816 -4.43068593e-05   0.000153802815  -4.4306859e-05      0.210457366     0.962000799
12.661092            0.216394024     0.960522343   0.000154003523 -4.44250014e-05   0.000154003522 -4.44250011e-05      0.210782872     0.961920457
12.66112             0.216723028       0.9604389    0.00015420453 -4.45434388e-05    0.00015420453 -4.45434386e-05      0.211108556     0.961839948
12.661148            0.217052212     0.960355286   0.000154405839 -4.46621724e-05   0.000154405838 -4.46621722e-05      0.211434418     0.961759272
12.661176            0.217381577       0.9602715   0.000154607448  -4.4781203e-05   0.000154607448 -4.47812027e-05      0.211760459     0.961678429
12.661204            0.217711123     0.960187543    0.00015480936 -4.49005312e-05    0.00015480936  -4.4900531e-05      0.212086677      0.96159742
12.661232            0.218040849     0.960103413   0.000155011574  -4.5020158e-05   0.000155011574 -4.50201577e-05      0.212413075     0.961516243
12.66126             0.218370757     0.960019111   0.000155214091  -4.5140084e-05    0.00015521409 -4.51400838e-05      0.212739651     0.961434898
12.661288            0.218700845     0.959934635   0.000155416911 -4.52603101e-05   0.000155416911 -4.52603099e-05      0.213066406     0.961353385
12.661316            0.219031115     0.959849987   0.000155620035 -4.53808371e-05   0.000155620034 -4.53808368e-05      0.213393339     0.961271704
12.661344            0.219361567     0.959765165   0.000155823463 -4.55016657e-05   0.000155823462 -4.55016655e-05      0.213720452     0.961189855
12.661372            0.219692199      0.95968017   0.000156027196 -4.56227968e-05   0.000156027195 -4.56227965e-05      0.214047745     0.961107837
12.6614              0.220023014     0.959595001   0.000156231233 -4.57442311e-05   0.000156231233 -4.57442309e-05      0.214375216      0.96102565
12.661428             0.22035401     0.959509657   0.000156435577 -4.58659695e-05   0.000156435577 -4.58659692e-05      0.214702867     0.960943293
12.661456            0.220685189      0.95942414   0.000156640227 -4.59880127e-05   0.000156640226 -4.59880125e-05      0.215030698     0.960860767
12.661484            0.221016549     0.959338447   0.000156845183 -4.61103616e-05   0.000156845183 -4.61103613e-05      0.215358708     0.960778071
12.661512            0.221348092     0.959252579   0.000157050447 -4.62330169e-05   0.000157050446 -4.62330167e-05      0.215686899     0.960695205
12.66154             0.221679817     0.959166536   0.000157256018 -4.63559795e-05   0.000157256017 -4.63559793e-05       0.21601527     0.960612168
12.661568            0.222011724     0.959080317   0.000157461897 -4.64792502e-05   0.000157461897   -4.647925e-05       0.21634382     0.960528961
12.661596            0.222343815     0.958993923   0.000157668085 -4.66028298e-05   0.000157668084 -4.66028296e-05      0.216672552     0.960445583
12.661624            0.222676088     0.958907352   0.000157874581 -4.67267191e-05   0.000157874581 -4.67267189e-05      0.217001463     0.960362033
12.661652            0.223008544     0.958820604   0.000158081388  -4.6850919e-05   0.000158081387 -4.68509187e-05      0.217330556     0.960278312
12.66168             0.223341183      0.95873368   0.000158288504 -4.69754302e-05   0.000158288503 -4.69754299e-05      0.217659829     0.960194419
12.661708            0.223674005     0.958646579    0.00015849593 -4.71002535e-05    0.00015849593 -4.71002533e-05      0.217989283     0.960110355
12.661736            0.224007011       0.9585593   0.000158703668 -4.72253899e-05   0.000158703668 -4.72253896e-05      0.218318918     0.960026117
12.661764            0.224340201     0.958471844   0.000158911717 -4.73508401e-05   0.000158911717 -4.73508398e-05      0.218648734     0.959941707
12.661792            0.224673573      0.95838421   0.000159120078 -4.74766049e-05   0.000159120078 -4.74766047e-05      0.218978732     0.959857124
12.66182              0.22500713     0.958296397   0.000159328752 -4.76026853e-05   0.000159328751  -4.7602685e-05      0.219308911     0.959772368
12.661848            0.225340871     0.958208406   0.000159537738  -4.7729082e-05   0.000159537738 -4.77290817e-05      0.219639272     0.959687439
12.661876            0.225674796     0.958120237   0.000159747038 -4.78557958e-05   0.000159747038 -4.78557955e-05      0.219969814     0.959602335
12.661904            0.226008905     0.958031888   0.000159956652 -4.79828276e-05   0.000159956651 -4.79828274e-05      0.220300539     0.959517058
12.661932            0.226343198     0.957943359    0.00016016658 -4.81101783e-05   0.000160166579  -4.8110178e-05      0.220631445     0.959431606
12.66196             0.226677676     0.957854651   0.000160376823 -4.82378486e-05   0.000160376822 -4.82378484e-05      0.220962534      0.95934598
12.661988            0.227012338     0.957765763   0.000160587381 -4.83658395e-05   0.000160587381 -4.83658393e-05      0.221293805     0.959260178
12.662016            0.227347186     0.957676695   0.000160798255 -4.84941518e-05   0.000160798255 -4.84941516e-05      0.221625258     0.959174202
12.662044            0.227682218     0.957587446   0.000161009446 -4.86227863e-05   0.000161009446 -4.86227861e-05      0.221956895      0.95908805
12.662072            0.228017435     0.957498017   0.000161220953 -4.87517439e-05   0.000161220953 -4.87517437e-05      0.222288714     0.959001722
12.6621              0.228352838     0.957408406   0.000161432778 -4.88810255e-05   0.000161432778 -4.88810252e-05      0.222620715     0.958915218
12.662128            0.228688426     0.957318613   0.000161644921 -4.90106318e-05    0.00016164492 -4.90106315e-05        0.2229529     0.958828538
12.662156            0.229024199     0.957228639   0.000161857381 -4.91405638e-05   0.000161857381 -4.91405636e-05      0.223285268     0.958741681
12.662184            0.229360158     0.957138483   0.000162070161 -4.92708223e-05   0.000162070161 -4.92708221e-05       0.22361782     0.958654647
12.662212            0.229696303     0.957048144    0.00016228326 -4.94014083e-05    0.00016228326  -4.9401408e-05      0.223950554     0.958567436
12.66224             0.230032634     0.956957623   0.000162496679 -4.95323224e-05   0.000162496679 -4.95323222e-05      0.224283473     0.958480048
12.662268            0.230369151     0.956866918   0.000162710418 -4.96635657e-05   0.000162710418 -4.96635655e-05      0.224616575     0.958392481
12.662296            0.230705854     0.956776031   0.000162924478 -4.97951391e-05   0.000162924478 -4.97951388e-05      0.224949861     0.958304737
12.662324            0.231042744      0.95668496   0.000163138859 -4.99270433e-05   0.000163138859  -4.9927043e-05      0.225283331     0.958216814
12.662352             0.23137982     0.956593705   0.000163353562 -5.00592792e-05   0.000163353562 -5.00592789e-05      0.225616986     0.958128713
12.66238             0.231717082     0.956502265   0.000163568588 -5.01918478e-05   0.000163568587 -5.01918475e-05      0.225950824     0.958040432
12.662408            0.232054532     0.956410642   0.000163783936 -5.03247499e-05   0.000163783935 -5.03247496e-05      0.226284848     0.957951972
12.662436            0.232392168     0.956318833   0.000163999607 -5.04579864e-05   0.000163999607 -5.04579862e-05      0.226619055     0.957863333
12.662464            0.232729991      0.95622684   0.000164215602 -5.05915582e-05   0.000164215602  -5.0591558e-05      0.226953448     0.957774514
12.662492            0.233068002     0.956134661   0.000164431922 -5.07254662e-05   0.000164431922  -5.0725466e-05      0.227288025     0.957685515
12.66252               0.2334062     0.956042296   0.000164648566 -5.08597113e-05   0.000164648566  -5.0859711e-05      0.227622788     0.957596335
12.662548            0.233744586     0.955949745   0.000164865536 -5.09942943e-05   0.000164865536 -5.09942941e-05      0.227957735     0.957506974
12.662576            0.234083159     0.955857008   0.000165082831 -5.11292162e-05   0.000165082831  -5.1129216e-05      0.228292868     0.957417433
12.662604             0.23442192     0.955764085   0.000165300453 -5.12644779e-05   0.000165300453 -5.12644777e-05      0.228628187      0.95732771
12.662632            0.234760869     0.955670974   0.000165518402 -5.14000803e-05   0.000165518401   -5.140008e-05      0.228963691     0.957237805
12.66266             0.235100006     0.955577676   0.000165736678 -5.15360242e-05   0.000165736677  -5.1536024e-05       0.22929938     0.957147719
12.662688            0.235439331     0.955484191   0.000165955282 -5.16723107e-05   0.000165955281 -5.16723104e-05      0.229635256      0.95705745
12.662716            0.235778845     0.955390518   0.000166174214 -5.18089405e-05   0.000166174213 -5.18089402e-05      0.229971318     0.956966999
12.662744            0.236118547     0.955296656   0.000166393475 -5.19459146e-05   0.000166393474 -5.19459144e-05      0.230307566     0.956876365
12.662772            0.236458438     0.955202606   0.000166613065  -5.2083234e-05   0.000166613065 -5.20832338e-05         0.230644     0.956785548
12.6628              0.236798517     0.955108368   0.000166832985 -5.22208995e-05   0.000166832985 -5.22208993e-05      0.230980621     0.956694547
12.662828            0.237138786      0.95501394   0.000167053236 -5.23589121e-05   0.000167053236 -5.23589119e-05      0.231317428     0.956603363
12.662856            0.237479244     0.954919323   0.000167273818 -5.24972727e-05   0.000167273817 -5.24972725e-05      0.231654422     0.956511994
12.662884            0.237819891     0.954824516   0.000167494731 -5.26359822e-05    0.00016749473  -5.2635982e-05      0.231991603     0.956420441
12.662912            0.238160727     0.954729519   0.000167715975 -5.27750416e-05   0.000167715975 -5.27750413e-05      0.232328971     0.956328704
12.66294             0.238501753     0.954634331   0.000167937553 -5.29144517e-05   0.000167937552 -5.29144515e-05      0.232666527     0.956236782
12.662968            0.238842968     0.954538953   0.000168159463 -5.30542136e-05   0.000168159462 -5.30542133e-05      0.233004269     0.956144674
12.662996            0.239184374     0.954443384   0.000168381706 -5.31943281e-05   0.000168381706 -5.31943278e-05      0.233342199     0.956052381
12.663024            0.239525969     0.954347624   0.000168604284 -5.33347962e-05   0.000168604284 -5.33347959e-05      0.233680317     0.955959902
12.663052            0.239867754     0.954251672   0.000168827196 -5.34756188e-05   0.000168827196 -5.34756185e-05      0.234018622     0.955867236
12.66308              0.24020973     0.954155528   0.000169050443 -5.36167969e-05   0.000169050443 -5.36167966e-05      0.234357116     0.955774384
12.663108            0.240551896     0.954059192   0.000169274026 -5.37583314e-05   0.000169274025 -5.37583312e-05      0.234695797     0.955681346
12.663136            0.240894253     0.953962663   0.000169497944 -5.39002234e-05   0.000169497944 -5.39002231e-05      0.235034667      0.95558812
12.663164              0.2412368     0.953865941     0.0001697222 -5.40424736e-05   0.000169722199 -5.40424733e-05      0.235373725     0.955494707
12.663192            0.241579538     0.953769026   0.000169946792 -5.41850831e-05   0.000169946791 -5.41850829e-05      0.235712972     0.955401106
12.66322             0.241922467     0.953671918   0.000170171722 -5.43280529e-05   0.000170171721 -5.43280526e-05      0.236052407     0.955307317
12.663248            0.242265587     0.953574616   0.000170396989 -5.44713839e-05   0.000170396989 -5.44713836e-05      0.236392031      0.95521334
12.663276            0.242608899     0.953477119   0.000170622596  -5.4615077e-05   0.000170622596 -5.46150768e-05      0.236731844     0.955119174
12.663304            0.242952402     0.953379428   0.000170848542 -5.47591333e-05   0.000170848541  -5.4759133e-05      0.237071846     0.955024819
12.663332            0.243296096     0.953281542   0.000171074827 -5.49035537e-05   0.000171074826 -5.49035534e-05      0.237412037     0.954930275
12.66336             0.243639982     0.953183461   0.000171301452 -5.50483392e-05   0.000171301452 -5.50483389e-05      0.237752418     0.954835541
12.663388            0.243984061     0.953085185   0.000171528419 -5.51934907e-05   0.000171528418 -5.51934904e-05      0.238092988     0.954740618
12.663416            0.244328331     0.952986712   0.000171755726 -5.53390092e-05   0.000171755725  -5.5339009e-05      0.238433748     0.954645504
12.663444            0.244672793     0.952888044   0.000171983375 -5.54848958e-05   0.000171983375 -5.54848955e-05      0.238774697     0.954550199
12.663472            0.245017447     0.952789179   0.000172211366 -5.56311514e-05   0.000172211366 -5.56311511e-05      0.239115837     0.954454704
12.6635              0.245362294     0.952690117   0.000172439701 -5.57777769e-05     0.0001724397 -5.57777766e-05      0.239457166     0.954359017
12.663528            0.245707334     0.952590858   0.000172668378 -5.59247734e-05   0.000172668378 -5.59247731e-05      0.239798686     0.954263139
12.663556            0.246052566     0.952491402   0.000172897399 -5.60721419e-05   0.000172897399 -5.60721416e-05      0.240140397      0.95416707
12.663584            0.246397991     0.952391748   0.000173126765 -5.62198833e-05   0.000173126765  -5.6219883e-05      0.240482297     0.954070808
12.663612             0.24674361     0.952291896   0.000173356476 -5.63679987e-05   0.000173356475 -5.63679984e-05      0.240824389     0.953974353
12.66364             0.247089421     0.952191845   0.000173586532  -5.6516489e-05   0.000173586531 -5.65164887e-05      0.241166671     0.953877706
12.663668            0.247435426     0.952091596   0.000173816934 -5.66653553e-05   0.000173816933  -5.6665355e-05      0.241509145     0.953780866
12.663696            0.247781624     0.951991147   0.000174047682 -5.68145985e-05   0.000174047682 -5.68145982e-05      0.241851809     0.953683832
12.663724            0.248128016     0.951890499   0.000174278777 -5.69642197e-05   0.000174278777 -5.69642194e-05      0.242194665     0.953586604
12.663752            0.248474601     0.951789652    0.00017451022 -5.71142199e-05    0.00017451022 -5.71142196e-05      0.242537712     0.953489183
12.66378             0.248821381     0.951688604   0.000174742011 -5.72646001e-05   0.000174742011 -5.72645998e-05      0.242880951     0.953391567
12.663808            0.249168354     0.951587355   0.000174974151 -5.74153613e-05   0.000174974151  -5.7415361e-05      0.243224381     0.953293756
12.663836            0.249515522     0.951485906    0.00017520664 -5.75665046e-05   0.000175206639 -5.75665043e-05      0.243568003     0.953195751
12.663864            0.249862884     0.951384256   0.000175439478 -5.77180308e-05   0.000175439478 -5.77180306e-05      0.243911818      0.95309755
12.663892             0.25021044     0.951282405   0.000175672667 -5.78699412e-05   0.000175672666 -5.78699409e-05      0.244255824     0.952999153
12.66392             0.250558192     0.951180351   0.000175906206 -5.80222367e-05   0.000175906205 -5.80222364e-05      0.244600023      0.95290056
12.663948            0.250906138     0.951078096   0.000176140096 -5.81749183e-05   0.000176140096 -5.81749181e-05      0.244944414     0.952801771
12.663976            0.251254279     0.950975638   0.000176374339 -5.83279872e-05   0.000176374338 -5.83279869e-05      0.245288998     0.952702785
12.664004            0.251602615     0.950872977   0.000176608933 -5.84814442e-05   0.000176608933 -5.84814439e-05      0.245633775     0.952603603
12.664032            0.251951146     0.950770113   0.000176843881 -5.86352905e-05    0.00017684388 -5.86352902e-05      0.245978744     0.952504223
12.66406             0.252299873     0.950667046   0.000177079182  -5.8789527e-05   0.000177079181 -5.87895268e-05      0.246323907     0.952404645
12.664088            0.252648795     0.950563774   0.000177314836  -5.8944155e-05   0.000177314836 -5.89441547e-05      0.246669262     0.952304869
12.664116            0.252997913     0.950460299   0.000177550846 -5.90991753e-05   0.000177550845  -5.9099175e-05      0.247014811     0.952204895
12.664144            0.253347226     0.950356619    0.00017778721 -5.92545891e-05    0.00017778721 -5.92545888e-05      0.247360554     0.952104722
12.664172            0.253696736     0.950252734    0.00017802393 -5.94103973e-05   0.000178023929  -5.9410397e-05       0.24770649     0.952004351
12.6642              0.254046442     0.950148645   0.000178261006 -5.95666012e-05   0.000178261005 -5.95666009e-05       0.24805262      0.95190378
12.664228            0.254396344     0.950044349   0.000178498438 -5.97232016e-05   0.000178498438 -5.97232013e-05      0.248398944     0.951803009
12.664256            0.254746442     0.949939848   0.000178736228 -5.98801998e-05   0.000178736227 -5.98801995e-05      0.248745461     0.951702038
12.664284            0.255096738      0.94983514   0.000178974375 -6.00375967e-05   0.000178974375 -6.00375964e-05      0.249092174     0.951600867
12.664312            0.255447229     0.949730226    0.00017921288 -6.01953934e-05    0.00017921288 -6.01953931e-05       0.24943908     0.951499496
12.66434             0.255797918     0.949625105   0.000179451745 -6.03535911e-05   0.000179451744 -6.03535908e-05      0.249786181     0.951397923
12.664368            0.256148804     0.949519776   0.000179690968 -6.05121907e-05   0.000179690968 -6.05121904e-05      0.250133477     0.951296149
12.664396            0.256499886      0.94941424   0.000179930552 -6.06711934e-05   0.000179930552 -6.06711931e-05      0.250480967     0.951194174
12.664424            0.256851167     0.949308496   0.000180170496 -6.08306002e-05   0.000180170495 -6.08305999e-05      0.250828653     0.951091996
12.664452            0.257202644     0.949202544   0.000180410801 -6.09904122e-05     0.0001804108 -6.09904119e-05      0.251176533     0.950989616
12.66448             0.257554319     0.949096383   0.000180651467 -6.11506306e-05   0.000180651467 -6.11506303e-05      0.251524609     0.950887033
12.664508            0.257906192     0.948990013   0.000180892495 -6.13112563e-05   0.000180892495  -6.1311256e-05      0.251872881     0.950784248
12.664536            0.258258263     0.948883434   0.000181133886 -6.14722906e-05   0.000181133886 -6.14722903e-05      0.252221347     0.950681259
12.664564            0.258610532     0.948776645    0.00018137564 -6.16337345e-05    0.00018137564 -6.16337342e-05       0.25257001     0.950578066
12.664592            0.258962999     0.948669645   0.000181617758  -6.1795589e-05   0.000181617758 -6.17955887e-05      0.252918868     0.950474669
12.66462             0.259315665     0.948562436    0.00018186024 -6.19578554e-05    0.00018186024 -6.19578551e-05      0.253267923     0.950371068
12.664648            0.259668529     0.948455015   0.000182103087 -6.21205347e-05   0.000182103086 -6.21205344e-05      0.253617173     0.950267262
12.664676            0.260021591     0.948347384   0.000182346299  -6.2283628e-05   0.000182346298 -6.22836277e-05       0.25396662     0.950163251
12.664704            0.260374853     0.948239541   0.000182589877 -6.24471365e-05   0.000182589876 -6.24471362e-05      0.254316263     0.950059035
12.664732            0.260728313     0.948131486   0.000182833821 -6.26110612e-05    0.00018283382 -6.26110609e-05      0.254666103     0.949954612
12.66476             0.261081973     0.948023218   0.000183078132 -6.27754033e-05   0.000183078132  -6.2775403e-05       0.25501614     0.949849984
12.664788            0.261435831     0.947914739   0.000183322811 -6.29401639e-05    0.00018332281 -6.29401636e-05      0.255366374     0.949745149
12.664816             0.26178989     0.947806046   0.000183567858 -6.31053441e-05   0.000183567857 -6.31053438e-05      0.255716804     0.949640108
12.664844            0.262144147      0.94769714   0.000183813273 -6.32709451e-05   0.000183813272 -6.32709448e-05      0.256067432     0.949534859
12.664872            0.262498605      0.94758802   0.000184059057  -6.3436968e-05   0.000184059057 -6.34369677e-05      0.256418257     0.949429403
12.6649              0.262853262     0.947478686   0.000184305212 -6.36034139e-05   0.000184305211 -6.36034136e-05       0.25676928     0.949323738
12.664928            0.263208119     0.947369138   0.000184551736  -6.3770284e-05   0.000184551736 -6.37702837e-05        0.2571205     0.949217866
12.664956            0.263563177     0.947259375   0.000184798632 -6.39375793e-05   0.000184798631  -6.3937579e-05      0.257471918     0.949111785
12.664984            0.263918434     0.947149397   0.000185045898 -6.41053012e-05   0.000185045898 -6.41053009e-05      0.257823535     0.949005495
12.665012            0.264273892     0.947039204   0.000185293537 -6.42734506e-05   0.000185293536 -6.42734503e-05      0.258175349     0.948898996
12.66504             0.264629551     0.946928794   0.000185541548 -6.44420289e-05   0.000185541547 -6.44420286e-05      0.258527361     0.948792287
12.665068            0.264985411     0.946818169   0.000185789932  -6.4611037e-05   0.000185789932 -6.46110367e-05      0.258879572     0.948685368
12.665096            0.265341471     0.946707327    0.00018603869 -6.47804762e-05   0.000186038689 -6.47804759e-05      0.259231982     0.948578239
12.665124            0.265697732     0.946596268   0.000186287822 -6.49503477e-05   0.000186287821 -6.49503474e-05       0.25958459       0.9484709
12.665152            0.266054195     0.946484991   0.000186537328 -6.51206525e-05   0.000186537328 -6.51206522e-05      0.259937397     0.948363349
12.66518             0.266410859     0.946373497    0.00018678721 -6.52913919e-05   0.000186787209 -6.52913916e-05      0.260290403     0.948255587
12.665208            0.266767724     0.946261785   0.000187037467 -6.54625671e-05   0.000187037467 -6.54625668e-05      0.260643608     0.948147613
12.665236            0.267124792     0.946149854   0.000187288101 -6.56341792e-05   0.000187288101 -6.56341789e-05      0.260997012     0.948039426
12.665264             0.26748206     0.946037705   0.000187539112 -6.58062294e-05   0.000187539112 -6.58062291e-05      0.261350616     0.947931028
12.665292            0.267839531     0.945925336   0.000187790501 -6.59787189e-05     0.0001877905 -6.59787186e-05       0.26170442     0.947822416
12.66532             0.268197204     0.945812748   0.000188042267 -6.61516489e-05   0.000188042267 -6.61516486e-05      0.262058423     0.947713592
12.665348             0.26855508      0.94569994   0.000188294412 -6.63250205e-05   0.000188294412 -6.63250202e-05      0.262412626     0.947604553
12.665376            0.268913157     0.945586912   0.000188546936  -6.6498835e-05   0.000188546936 -6.64988347e-05      0.262767029     0.947495301
12.665404            0.269271437     0.945473663    0.00018879984 -6.66730935e-05    0.00018879984 -6.66730932e-05      0.263121633     0.947385835