! TOUCHSTONE file generated by CST MICROWAVE STUDIO
! Date and time: Wed Jul 31 11:08:49 2024
! Project name: WaveGuide_BPF-Ver4.1_U-shape_Ku_T3_C4_CWA_2.cst
! Parameters = {cavity_h=16; cavity_l0=10; cavity_l1=15.2342; cavity_l2=16.8614; cavity_l3=17.1323; cavity_l4=17.2671; cavity_l5=17.152; cavity_l6=17.5607; cavity_r=2.5; cavity_screw_l=0.5; cavity_screw_r=1.5; cavity_w=8; iris_h00=0; iris_h01=8.8254; iris_h112=0; iris_h12=5.5999; iris_h211=3.6635; iris_h23=5.2049; iris_h310=3.9708; iris_h34=5.0674; iris_h45=4.9212; iris_h49=4.6253; iris_h56=4.7885; iris_h58=4.4465; iris_h67=6.5917; iris_rx=0.1; iris_screw_l=0.5; iris_screw_r=1.5; iris_shift00=0; iris_shift112=0; iris_shift211=3.5; iris_shift310=0; iris_shift49=0; iris_shift58=3.5; iris_shift67=3.5; iris_tx=4.5; iris_tz=4.5; iris_w00=0; iris_w112=0; iris_w211=4; iris_w310=3.9708; iris_w49=4.6253; iris_w58=4; iris_w67=4; mesh_cavity=5; mesh_iris=7; mesh_screw=7; order=12; reset_all=0; sigma=4.8e+07}
! Header version: 2018
! Port assignment regex: !\s*Touchstone port\s*([0-9]+)\s*=\s*(CST MWS port|CST DS port)\s*([0-9]+|Zmin|Zmax)\s*\(\"(.*)\"\)(\s*mode\s*([0-9]+))?.*
! Touchstone port assignment:
! Touchstone port 1 = CST MWS port 1 ("")
! Touchstone port 2 = CST MWS port 2 ("")
# GHz S RI R 50
12.66                0.491675498      0.84069314   0.000351789207 -0.000246323679   0.000351789207 -0.000246323678      0.498671049      0.83654893
12.660028            0.492175106     0.840374202   0.000352254181 -0.000246984722   0.000352254181 -0.000246984721      0.499169725     0.836224789
12.660056            0.492674984     0.840054647    0.00035271965 -0.000247647608    0.00035271965 -0.000247647607      0.499668631     0.835900047
12.660084            0.493175126     0.839734479   0.000353185614 -0.000248312343   0.000353185614 -0.000248312342      0.500167775     0.835574699
12.660112            0.493675523       0.8394137   0.000353652072 -0.000248978933   0.000353652072 -0.000248978932      0.500667165     0.835248738
12.66014             0.494176171     0.839092313   0.000354119022 -0.000249647383   0.000354119022 -0.000249647382       0.50116681     0.834922159
12.660168            0.494677067     0.838770317   0.000354586464 -0.000250317699   0.000354586465 -0.000250317698      0.501666708      0.83459496
12.660196            0.495178218     0.838447708   0.000355054399 -0.000250989886   0.000355054399 -0.000250989885      0.502166854     0.834267143
12.660224            0.495679622     0.838124485   0.000355522824 -0.000251663949   0.000355522825 -0.000251663948      0.502667249     0.833938708
12.660252            0.496181279     0.837800646    0.00035599174 -0.000252339894   0.000355991741 -0.000252339893      0.503167893     0.833609652
12.66028             0.496683191     0.837476191   0.000356461147 -0.000253017727   0.000356461147 -0.000253017726      0.503668784     0.833279975
12.660308            0.497185355     0.837151118   0.000356931042 -0.000253697453   0.000356931043 -0.000253697452      0.504169923     0.832949676
12.660336            0.497687773     0.836825426   0.000357401427 -0.000254379078   0.000357401427 -0.000254379077      0.504671311     0.832618753
12.660364            0.498190445     0.836499113     0.0003578723 -0.000255062607     0.0003578723 -0.000255062606      0.505172946     0.832287205
12.660392            0.498693369      0.83617218    0.00035834366 -0.000255748046   0.000358343661 -0.000255748045      0.505674829     0.831955031
12.66042             0.499196547     0.835844624   0.000358815507 -0.000256435401   0.000358815508   -0.0002564354      0.506176959      0.83162223
12.660448            0.499699977     0.835516443   0.000359287841 -0.000257124677   0.000359287842 -0.000257124676      0.506679338       0.8312888
12.660476            0.500203661     0.835187638    0.00035976066  -0.00025781588   0.000359760661 -0.000257815879      0.507181963     0.830954741
12.660504            0.500707597     0.834858207   0.000360233965 -0.000258509016   0.000360233965 -0.000258509015      0.507684836      0.83062005
12.660532            0.501211786     0.834528148   0.000360707753  -0.00025920409   0.000360707754 -0.000259204089      0.508187956     0.830284727
12.66056             0.501716228      0.83419746   0.000361182025 -0.000259901108   0.000361182026 -0.000259901107      0.508691322     0.829948771
12.660588            0.502220922     0.833866143    0.00036165678 -0.000260600076   0.000361656781 -0.000260600075      0.509194936     0.829612181
12.660616            0.502725868     0.833534194   0.000362132018    -0.000261301   0.000362132018 -0.000261300999      0.509698797     0.829274954
12.660644            0.503231067     0.833201613   0.000362607736 -0.000262003885   0.000362607737 -0.000262003884      0.510202904     0.828937091
12.660672            0.503736518     0.832868398   0.000363083936 -0.000262708737   0.000363083936 -0.000262708736      0.510707258     0.828598589
12.6607              0.504242221     0.832534549   0.000363560615 -0.000263415562   0.000363560616 -0.000263415561      0.511211858     0.828259447
12.660728            0.504748176     0.832200063   0.000364037774 -0.000264124366   0.000364037774 -0.000264124365      0.511716705     0.827919665
12.660756            0.505254382      0.83186494   0.000364515411 -0.000264835154   0.000364515412 -0.000264835153      0.512221797      0.82757924
12.660784            0.505760841     0.831529178   0.000364993526 -0.000265547933   0.000364993527 -0.000265547932      0.512727136     0.827238173
12.660812            0.506267551     0.831192777   0.000365472118 -0.000266262708   0.000365472119 -0.000266262707       0.51323272      0.82689646
12.66084             0.506774512     0.830855734   0.000365951187 -0.000266979485   0.000365951187 -0.000266979484      0.513738551     0.826554102
12.660868            0.507281725     0.830518049    0.00036643073 -0.000267698271   0.000366430731  -0.00026769827      0.514244627     0.826211097
12.660896            0.507789189      0.83017972   0.000366910749 -0.000268419071   0.000366910749  -0.00026841907      0.514750948     0.825867443
12.660924            0.508296904     0.829840747   0.000367391241  -0.00026914189   0.000367391241 -0.000269141889      0.515257515      0.82552314
12.660952            0.508804871     0.829501127   0.000367872206 -0.000269866736   0.000367872206 -0.000269866735      0.515764327     0.825178186
12.66098             0.509313088      0.82916086   0.000368353643 -0.000270593614   0.000368353643 -0.000270593613      0.516271384      0.82483258
12.661008            0.509821556     0.828819944   0.000368835551 -0.000271322529   0.000368835552 -0.000271322528      0.516778686     0.824486321
12.661036            0.510330274     0.828478379    0.00036931793 -0.000272053489   0.000369317931 -0.000272053488      0.517286233     0.824139407
12.661064            0.510839243     0.828136162   0.000369800779 -0.000272786499   0.000369800779 -0.000272786498      0.517794025     0.823791837
12.661092            0.511348463     0.827793292   0.000370284096 -0.000273521565   0.000370284096 -0.000273521564      0.518302061      0.82344361
12.66112             0.511857932     0.827449769   0.000370767881 -0.000274258693   0.000370767881 -0.000274258692      0.518810341     0.823094724
12.661148            0.512367652     0.827105591   0.000371252133  -0.00027499789   0.000371252133 -0.000274997889      0.519318866     0.822745178
12.661176            0.512877622     0.826760756    0.00037173685 -0.000275739161   0.000371736851  -0.00027573916      0.519827634     0.822394972
12.661204            0.513387841     0.826415264   0.000372222033 -0.000276482512   0.000372222034 -0.000276482511      0.520336647     0.822044103
12.661232            0.513898311     0.826069113    0.00037270768  -0.00027722795   0.000372707681 -0.000277227949      0.520845903      0.82169257
12.66126              0.51440903     0.825722302   0.000373193791 -0.000277975481   0.000373193791  -0.00027797548      0.521355403     0.821340373
12.661288            0.514919998     0.825374829   0.000373680363 -0.000278725111   0.000373680364  -0.00027872511      0.521865146     0.820987509
12.661316            0.515431215     0.825026693   0.000374167397 -0.000279476847   0.000374167397 -0.000279476846      0.522375132     0.820633978
12.661344            0.515942682     0.824677893   0.000374654891 -0.000280230693   0.000374654892 -0.000280230692      0.522885362     0.820279778
12.661372            0.516454397     0.824328428   0.000375142845 -0.000280986658   0.000375142845 -0.000280986657      0.523395834     0.819924908
12.6614              0.516966362     0.823978296   0.000375631256 -0.000281744747   0.000375631257 -0.000281744746      0.523906549     0.819569366
12.661428            0.517478575     0.823627496   0.000376120125 -0.000282504965   0.000376120126 -0.000282504964      0.524417507     0.819213152
12.661456            0.517991037     0.823276026   0.000376609451 -0.000283267321   0.000376609451  -0.00028326732      0.524928707     0.818856263
12.661484            0.518503747     0.822923886   0.000377099231 -0.000284031819   0.000377099232 -0.000284031818       0.52544015     0.818498699
12.661512            0.519016705     0.822571074   0.000377589466 -0.000284798467   0.000377589467 -0.000284798466      0.525951834     0.818140459
12.66154             0.519529911     0.822217589   0.000378080154  -0.00028556727   0.000378080155 -0.000285567269      0.526463761      0.81778154
12.661568            0.520043365     0.821863429   0.000378571295 -0.000286338235   0.000378571295 -0.000286338234      0.526975929     0.817421942
12.661596            0.520557067     0.821508592   0.000379062886 -0.000287111368   0.000379062886 -0.000287111367      0.527488339     0.817061664
12.661624            0.521071017     0.821153079   0.000379554927 -0.000287886677   0.000379554927 -0.000287886676       0.52800099     0.816700703
12.661652            0.521585214     0.820796887   0.000380047417 -0.000288664166   0.000380047417 -0.000288664165      0.528513882     0.816339059
12.66168             0.522099658     0.820440015   0.000380540355 -0.000289443843   0.000380540355 -0.000289443842      0.529027015      0.81597673
12.661708            0.522614349     0.820082462   0.000381033739 -0.000290225715   0.000381033739 -0.000290225714      0.529540389     0.815613715
12.661736            0.523129287     0.819724226   0.000381527569 -0.000291009787   0.000381527569 -0.000291009786      0.530054004     0.815250013
12.661764            0.523644472     0.819365306   0.000382021843 -0.000291796066   0.000382021843 -0.000291796065      0.530567859     0.814885623
12.661792            0.524159904     0.819005701    0.00038251656 -0.000292584558    0.00038251656 -0.000292584557      0.531081955     0.814520542
12.66182             0.524675582     0.818645409   0.000383011719 -0.000293375271    0.00038301172  -0.00029337527       0.53159629     0.814154769
12.661848            0.525191506     0.818284429   0.000383507319 -0.000294168211    0.00038350732  -0.00029416821      0.532110865     0.813788304
12.661876            0.525707676     0.817922759   0.000384003359 -0.000294963384   0.000384003359 -0.000294963383       0.53262568     0.813421145
12.661904            0.526224092     0.817560399   0.000384499837 -0.000295760797   0.000384499837 -0.000295760797      0.533140735      0.81305329
12.661932            0.526740754     0.817197346   0.000384996752 -0.000296560457   0.000384996752 -0.000296560456      0.533656029     0.812684739
12.66196             0.527257661       0.8168336   0.000385494103  -0.00029736237   0.000385494103 -0.000297362369      0.534171561     0.812315489
12.661988            0.527774814      0.81646916   0.000385991888 -0.000298166543   0.000385991889 -0.000298166542      0.534687333      0.81194554
12.662016            0.528292212     0.816104023   0.000386490107 -0.000298972983   0.000386490108 -0.000298972982      0.535203343     0.811574889
12.662044            0.528809854     0.815738188   0.000386988758 -0.000299781696   0.000386988759 -0.000299781695      0.535719592     0.811203537
12.662072            0.529327742     0.815371654    0.00038748784 -0.000300592689   0.000387487841 -0.000300592688      0.536236079      0.81083148
12.6621              0.529845874      0.81500442   0.000387987352 -0.000301405969   0.000387987352 -0.000301405968      0.536752804     0.810458719
12.662128             0.53036425     0.814636484   0.000388487291 -0.000302221543   0.000388487292 -0.000302221542      0.537269767     0.810085251
12.662156            0.530882871     0.814267845   0.000388987658 -0.000303039417   0.000388987658 -0.000303039416      0.537786968     0.809711075
12.662184            0.531401735     0.813898501    0.00038948845 -0.000303859598    0.00038948845 -0.000303859597      0.538304405      0.80933619
12.662212            0.531920844     0.813528452   0.000389989666 -0.000304682093   0.000389989667 -0.000304682092       0.53882208     0.808960594
12.66224             0.532440195     0.813157695   0.000390491305 -0.000305506909   0.000390491306 -0.000305506908      0.539339992     0.808584286
12.662268            0.532959791     0.812786229   0.000390993365 -0.000306334053   0.000390993366 -0.000306334052      0.539858141     0.808207265
12.662296            0.533479629     0.812414053   0.000391495846 -0.000307163531   0.000391495846  -0.00030716353      0.540376526     0.807829528
12.662324             0.53399971     0.812041165   0.000391998745 -0.000307995351   0.000391998745  -0.00030799535      0.540895148     0.807451076
12.662352            0.534520035     0.811667565   0.000392502061 -0.000308829519   0.000392502062 -0.000308829518      0.541414005     0.807071906
12.66238             0.535040601      0.81129325   0.000393005793 -0.000309666043   0.000393005793 -0.000309666042      0.541933099     0.806692017
12.662408             0.53556141      0.81091822   0.000393509939  -0.00031050493    0.00039350994 -0.000310504929      0.542452427     0.806311407
12.662436            0.536082461     0.810542472   0.000394014498 -0.000311346185   0.000394014499 -0.000311346184      0.542971992     0.805930075
12.662464            0.536603754     0.810166005   0.000394519468 -0.000312189817   0.000394519469 -0.000312189816      0.543491791      0.80554802
12.662492            0.537125289     0.809788818   0.000395024849 -0.000313035833   0.000395024849 -0.000313035832      0.544011825      0.80516524
12.66252             0.537647065      0.80941091   0.000395530637 -0.000313884239   0.000395530637 -0.000313884238      0.544532094     0.804781735
12.662548            0.538169082     0.809032279   0.000396036832 -0.000314735043   0.000396036833 -0.000314735042      0.545052597     0.804397501
12.662576            0.538691341     0.808652924   0.000396543433 -0.000315588251   0.000396543433  -0.00031558825      0.545573335     0.804012538
12.662604             0.53921384     0.808272843   0.000397050437 -0.000316443871   0.000397050437  -0.00031644387      0.546094306     0.803626845
12.662632             0.53973658     0.807892034   0.000397557843 -0.000317301911   0.000397557844  -0.00031730191      0.546615511      0.80324042
12.66266              0.54025956     0.807510497    0.00039806565 -0.000318162376    0.00039806565 -0.000318162375      0.547136949     0.802853262
12.662688             0.54078278     0.807128229   0.000398573856 -0.000319025275   0.000398573856 -0.000319025274       0.54765862     0.802465368
12.662716             0.54130624     0.806745231   0.000399082459 -0.000319890614   0.000399082459 -0.000319890613      0.548180524     0.802076739
12.662744            0.541829939     0.806361498   0.000399591457 -0.000320758401   0.000399591458   -0.0003207584      0.548702661     0.801687371
12.662772            0.542353878     0.805977032    0.00040010085 -0.000321628643   0.000400100851 -0.000321628642      0.549225031     0.801297265
12.6628              0.542878056     0.805591829   0.000400610635 -0.000322501347   0.000400610636 -0.000322501346      0.549747632     0.800906418
12.662828            0.543402473     0.805205889   0.000401120811 -0.000323376521   0.000401120811  -0.00032337652      0.550270465     0.800514828
12.662856            0.543927128     0.804819211   0.000401631376 -0.000324254171   0.000401631376  -0.00032425417       0.55079353     0.800122496
12.662884            0.544452022     0.804431791   0.000402142328 -0.000325134306   0.000402142328 -0.000325134305      0.551316826     0.799729418
12.662912            0.544977154      0.80404363   0.000402653665 -0.000326016932   0.000402653666 -0.000326016931      0.551840353     0.799335593
12.66294             0.545502524     0.803654726   0.000403165387 -0.000326902058   0.000403165387 -0.000326902057      0.552364111     0.798941021
12.662968            0.546028132     0.803265077    0.00040367749 -0.000327789689   0.000403677491 -0.000327789688      0.552888099     0.798545699
12.662996            0.546553977     0.802874681   0.000404189974 -0.000328679835   0.000404189975 -0.000328679834      0.553412317     0.798149626
12.663024            0.547080059     0.802483538   0.000404702836 -0.000329572501   0.000404702837   -0.0003295725      0.553936766     0.797752801
12.663052            0.547606378     0.802091645   0.000405216075 -0.000330467697   0.000405216076 -0.000330467696      0.554461444     0.797355222
12.66308             0.548132933     0.801699002   0.000405729689 -0.000331365428    0.00040572969 -0.000331365427      0.554986351     0.796956887
12.663108            0.548659725     0.801305606   0.000406243676 -0.000332265703   0.000406243677 -0.000332265702      0.555511487     0.796557795
12.663136            0.549186753     0.800911457   0.000406758034 -0.000333168529   0.000406758035 -0.000333168528      0.556036853     0.796157945
12.663164            0.549714016     0.800516552   0.000407272762 -0.000334073915   0.000407272762 -0.000334073914      0.556562446     0.795757336
12.663192            0.550241516     0.800120891   0.000407787856 -0.000334981866   0.000407787857 -0.000334981865      0.557088268     0.795355964
12.66322              0.55076925     0.799724471   0.000408303317 -0.000335892391   0.000408303317  -0.00033589239      0.557614318      0.79495383
12.663248            0.551297219     0.799327292    0.00040881914 -0.000336805498   0.000408819141 -0.000336805497      0.558140595     0.794550931
12.663276            0.551825423     0.798929351   0.000409335326 -0.000337721194   0.000409335326 -0.000337721193        0.5586671     0.794147267
12.663304            0.552353862     0.798530647   0.000409851871 -0.000338639487   0.000409851872 -0.000338639486      0.559193832     0.793742835
12.663332            0.552882534     0.798131179   0.000410368774 -0.000339560385   0.000410368774 -0.000339560384       0.55972079     0.793337633
12.66336             0.553411441     0.797730945   0.000410886033 -0.000340483895   0.000410886033 -0.000340483894      0.560247975     0.792931662
12.663388            0.553940581     0.797329944   0.000411403645 -0.000341410025   0.000411403645 -0.000341410024      0.560775385     0.792524918
12.663416            0.554469954     0.796928174   0.000411921609 -0.000342338782   0.000411921609 -0.000342338781      0.561303022     0.792117401
12.663444             0.55499956     0.796525633   0.000412439923 -0.000343270175   0.000412439923 -0.000343270174      0.561830884     0.791709108
12.663472            0.555529399      0.79612232   0.000412958584 -0.000344204212   0.000412958584 -0.000344204211      0.562358971     0.791300039
12.6635               0.55605947     0.795718234    0.00041347759   -0.0003451409   0.000413477591 -0.000345140899      0.562887283     0.790890192
12.663528            0.556589773     0.795313372   0.000413996941 -0.000346080246   0.000413996941 -0.000346080245      0.563415819     0.790479565
12.663556            0.557120308     0.794907734   0.000414516632  -0.00034702226   0.000414516632 -0.000347022259       0.56394458     0.790068157
12.663584            0.557651074     0.794501317   0.000415036662 -0.000347966948   0.000415036663 -0.000347966947      0.564473564     0.789655966
12.663612            0.558182072     0.794094121    0.00041555703 -0.000348914319    0.00041555703 -0.000348914318      0.565002772      0.78924299
12.66364               0.5587133     0.793686144   0.000416077732 -0.000349864381   0.000416077733  -0.00034986438      0.565532203     0.788829229
12.663668            0.559244759     0.793277383   0.000416598767 -0.000350817142   0.000416598768 -0.000350817141      0.566061857      0.78841468
12.663696            0.559776448     0.792867838   0.000417120132 -0.000351772609   0.000417120133 -0.000351772608      0.566591733     0.787999342
12.663724            0.560308367     0.792457507   0.000417641826  -0.00035273079   0.000417641826 -0.000352730789      0.567121831     0.787583213
12.663752            0.560840516     0.792046388   0.000418163845 -0.000353691694   0.000418163846 -0.000353691693      0.567652152     0.787166292
12.66378             0.561372893      0.79163448   0.000418686189 -0.000354655329   0.000418686189 -0.000354655328      0.568182693     0.786748578
12.663808              0.5619055     0.791221782   0.000419208853 -0.000355621703   0.000419208854 -0.000355621702      0.568713456     0.786330067
12.663836            0.562438335     0.790808291   0.000419731837 -0.000356590824   0.000419731837 -0.000356590823       0.56924444      0.78591076
12.663864            0.562971399     0.790394006   0.000420255137 -0.000357562699   0.000420255137 -0.000357562698      0.569775644     0.785490655
12.663892             0.56350469     0.789978925   0.000420778752 -0.000358537338   0.000420778752 -0.000358537337      0.570307068     0.785069749
12.66392              0.56403821     0.789563047   0.000421302679 -0.000359514749   0.000421302679 -0.000359514748      0.570838712     0.784648042
12.663948            0.564571956     0.789146371   0.000421826915 -0.000360494938   0.000421826915 -0.000360494937      0.571370575     0.784225531
12.663976            0.565105929     0.788728894   0.000422351459 -0.000361477916   0.000422351459 -0.000361477915      0.571902657     0.783802215
12.664004            0.565640129     0.788310615   0.000422876307 -0.000362463689   0.000422876308 -0.000362463688      0.572434958     0.783378093
12.664032            0.566174555     0.787891532   0.000423401458 -0.000363452267   0.000423401459 -0.000363452266      0.572967477     0.782953162
12.66406             0.566709207     0.787471645   0.000423926909 -0.000364443658   0.000423926909 -0.000364443657      0.573500214     0.782527422
12.664088            0.567244084      0.78705095   0.000424452657 -0.000365437869   0.000424452658 -0.000365437868      0.574033168     0.782100871
12.664116            0.567779187     0.786629447     0.0004249787  -0.00036643491   0.000424978701 -0.000366434909      0.574566339     0.781673506
12.664144            0.568314515     0.786207134   0.000425505036 -0.000367434788   0.000425505036 -0.000367434787      0.575099728     0.781245327
12.664172            0.568850066      0.78578401   0.000426031661 -0.000368437513   0.000426031662 -0.000368437512      0.575633332     0.780816332
12.6642              0.569385843     0.785360072   0.000426558574 -0.000369443091   0.000426558575  -0.00036944309      0.576167153     0.780386519
12.664228            0.569921842     0.784935319   0.000427085771 -0.000370451533   0.000427085772 -0.000370451532      0.576701189     0.779955886
12.664256            0.570458065     0.784509749   0.000427613251 -0.000371462846   0.000427613251 -0.000371462845       0.57723544     0.779524432
12.664284            0.570994512     0.784083361    0.00042814101 -0.000372477039    0.00042814101 -0.000372477038      0.577769906     0.779092156
12.664312             0.57153118     0.783656154   0.000428669046  -0.00037349412   0.000428669046 -0.000373494119      0.578304587     0.778659055
12.66434             0.572068071     0.783228124   0.000429197356 -0.000374514098   0.000429197356 -0.000374514097      0.578839481     0.778225128
12.664368            0.572605184     0.782799272   0.000429725937 -0.000375536982   0.000429725938 -0.000375536981      0.579374589     0.777790373
12.664396            0.573142518     0.782369594   0.000430254787  -0.00037656278   0.000430254788 -0.000376562779      0.579909911     0.777354789
12.664424            0.573680074     0.781939091   0.000430783903   -0.0003775915   0.000430783904 -0.000377591499      0.580445445     0.776918374
12.664452             0.57421785     0.781507759   0.000431313282 -0.000378623152   0.000431313283 -0.000378623151      0.580981191     0.776481126
12.66448             0.574755847     0.781075597   0.000431842922 -0.000379657743   0.000431842923 -0.000379657742       0.58151715     0.776043044
12.664508            0.575294063     0.780642603   0.000432372819 -0.000380695284    0.00043237282 -0.000380695283       0.58205332     0.775604126
12.664536            0.575832499     0.780208777   0.000432902972 -0.000381735781   0.000432902972  -0.00038173578      0.582589701      0.77516437
12.664564            0.576371154     0.779774115   0.000433433376 -0.000382779245   0.000433433376 -0.000382779244      0.583126293     0.774723775
12.664592            0.576910028     0.779338617   0.000433964029 -0.000383825684   0.000433964029 -0.000383825683      0.583663095     0.774282339
12.66462              0.57744912     0.778902281   0.000434494928 -0.000384875106   0.000434494929 -0.000384875105      0.584200107      0.77384006
12.664648            0.577988431     0.778465104   0.000435026071 -0.000385927521   0.000435026071  -0.00038592752      0.584737329     0.773396937
12.664676            0.578527958     0.778027087   0.000435557454 -0.000386982937   0.000435557454 -0.000386982936      0.585274759     0.772952967
12.664704            0.579067703     0.777588225   0.000436089074 -0.000388041364   0.000436089074 -0.000388041363      0.585812398      0.77250815
12.664732            0.579607665     0.777148519   0.000436620928 -0.000389102809   0.000436620929 -0.000389102808      0.586350245     0.772062483
12.66476             0.580147843     0.776707966   0.000437153014 -0.000390167283   0.000437153015 -0.000390167282        0.5868883     0.771615966
12.664788            0.580688236     0.776266564   0.000437685328 -0.000391234793   0.000437685329 -0.000391234792      0.587426562     0.771168595
12.664816            0.581228845     0.775824313   0.000438217868 -0.000392305349   0.000438217868 -0.000392305348      0.587965031     0.770720369
12.664844             0.58176967     0.775381209    0.00043875063 -0.000393378961    0.00043875063  -0.00039337896      0.588503706     0.770271288
12.664872            0.582310708     0.774937252    0.00043928361 -0.000394455636   0.000439283611 -0.000394455635      0.589042587     0.769821348
12.6649              0.582851961     0.774492439   0.000439816807 -0.000395535384   0.000439816807 -0.000395535383      0.589581674     0.769370549
12.664928            0.583393428     0.774046769   0.000440350216 -0.000396618214   0.000440350217 -0.000396618213      0.590120965     0.768918888
12.664956            0.583935108     0.773600241   0.000440883835 -0.000397704136   0.000440883835 -0.000397704135      0.590660461     0.768466364
12.664984               0.584477     0.773152852    0.00044141766 -0.000398793157   0.000441417661 -0.000398793156      0.591200161     0.768012975
12.665012            0.585019105     0.772704601   0.000441951689 -0.000399885288   0.000441951689 -0.000399885287      0.591740065     0.767558719
12.66504             0.585561422     0.772255485   0.000442485917 -0.000400980538   0.000442485918 -0.000400980537      0.592280171     0.767103595
12.665068            0.586103951     0.771805504   0.000443020342 -0.000402078915   0.000443020342 -0.000402078914       0.59282048     0.766647601
12.665096             0.58664669     0.771354655    0.00044355496  -0.00040318043   0.000443554961 -0.000403180429      0.593360992     0.766190735
12.665124             0.58718964     0.770902938   0.000444089768 -0.000404285091   0.000444089769  -0.00040428509      0.593901705     0.765732995
12.665152            0.587732801     0.770450348   0.000444624763 -0.000405392907   0.000444624764 -0.000405392906      0.594442619      0.76527438
12.66518             0.588276171     0.769996887   0.000445159941 -0.000406503888   0.000445159941 -0.000406503887      0.594983734     0.764814887
12.665208             0.58881975      0.76954255   0.000445695299 -0.000407618043   0.000445695299 -0.000407618042      0.595525049     0.764354516
12.665236            0.589363537     0.769087337   0.000446230833 -0.000408735382   0.000446230833 -0.000408735381      0.596066564     0.763893264
12.665264            0.589907533     0.768631247    0.00044676654 -0.000409855914    0.00044676654 -0.000409855913      0.596608277      0.76343113
12.665292            0.590451737     0.768174276   0.000447302416 -0.000410979648   0.000447302417 -0.000410979647       0.59715019     0.762968111
12.66532             0.590996148     0.767716423   0.000447838459 -0.000412106594   0.000447838459 -0.000412106593      0.597692301     0.762504206
12.665348            0.591540766     0.767257687   0.000448374664 -0.000413236761   0.000448374664  -0.00041323676      0.598234609     0.762039414
12.665376             0.59208559     0.766798066   0.000448911027 -0.000414370159   0.000448911028 -0.000414370158      0.598777115     0.761573732
12.665404             0.59263062     0.766337557   0.000449447546 -0.000415506798   0.000449447546 -0.000415506797      0.599319817     0.761107159