! TOUCHSTONE file generated by CST MICROWAVE STUDIO
! Date and time: Wed Jul 31 11:24:39 2024
! Project name: WaveGuide_BPF-Ver4.1_U-shape_Ku_T3_C4_CWA_2.cst
! Parameters = {cavity_h=16; cavity_l0=10; cavity_l1=15.1925; cavity_l2=16.8152; cavity_l3=17.0647; cavity_l4=17.2644; cavity_l5=17.0953; cavity_l6=17.6112; cavity_r=2.5; cavity_screw_l=0.5; cavity_screw_r=1.5; cavity_w=8; iris_h00=0; iris_h01=8.8133; iris_h112=0; iris_h12=5.586; iris_h211=3.6635; iris_h23=5.2002; iris_h310=3.9777; iris_h34=5.083; iris_h45=4.9288; iris_h49=4.616; iris_h56=4.7985; iris_h58=4.4495; iris_h67=6.5824; iris_rx=0.1; iris_screw_l=0.5; iris_screw_r=1.5; iris_shift00=0; iris_shift112=0; iris_shift211=3.5; iris_shift310=0; iris_shift49=0; iris_shift58=3.5; iris_shift67=3.5; iris_tx=4.5; iris_tz=4.5; iris_w00=0; iris_w112=0; iris_w211=4; iris_w310=3.9777; iris_w49=4.616; iris_w58=4; iris_w67=4; mesh_cavity=5; mesh_iris=7; mesh_screw=7; order=12; reset_all=0; sigma=4.8e+07}
! Header version: 2018
! Port assignment regex: !\s*Touchstone port\s*([0-9]+)\s*=\s*(CST MWS port|CST DS port)\s*([0-9]+|Zmin|Zmax)\s*\(\"(.*)\"\)(\s*mode\s*([0-9]+))?.*
! Touchstone port assignment:
! Touchstone port 1 = CST MWS port 1 ("")
! Touchstone port 2 = CST MWS port 2 ("")
# GHz S RI R 50
12.66                0.259841565     0.948414615   0.000156949593 -5.37010442e-05   0.000156949592 -5.37010432e-05      0.258750462      0.94864172
12.660028            0.260193925     0.948307432   0.000157151848 -5.38396882e-05   0.000157151846 -5.38396873e-05      0.259105465     0.948534157
12.660056            0.260546522      0.94820003   0.000157354385 -5.39786909e-05   0.000157354383   -5.397869e-05      0.259460808     0.948426345
12.660084            0.260899336     0.948092412    0.00015755721 -5.41180473e-05   0.000157557208 -5.41180464e-05      0.259816428     0.948318299
12.660112            0.261252348     0.947984583   0.000157760327 -5.42577523e-05   0.000157760325 -5.42577514e-05      0.260172263     0.948210036
12.66014              0.26160554     0.947876549    0.00015796374 -5.43978008e-05   0.000157963739 -5.43977999e-05      0.260528252     0.948101572
12.660168            0.261958911      0.94776831   0.000158167451 -5.45381937e-05   0.000158167449 -5.45381928e-05      0.260884394     0.947992908
12.660196            0.262312475      0.94765986   0.000158371456 -5.46789358e-05   0.000158371455 -5.46789349e-05       0.26124073     0.947884031
12.660224            0.262666232     0.947551201   0.000158575757 -5.48200283e-05   0.000158575755 -5.48200273e-05      0.261597262     0.947774942
12.660252            0.263020181     0.947442331   0.000158780353 -5.49614718e-05   0.000158780351 -5.49614709e-05      0.261953989     0.947665639
12.66028             0.263374323      0.94733325   0.000158985245 -5.51032675e-05   0.000158985244 -5.51032665e-05      0.262310911     0.947556123
12.660308            0.263728658     0.947223959   0.000159190434 -5.52454161e-05   0.000159190432 -5.52454152e-05      0.262668028     0.947446394
12.660336            0.264083186     0.947114456   0.000159395919 -5.53879187e-05   0.000159395918 -5.53879178e-05      0.263025341      0.94733645
12.660364            0.264437907     0.947004741   0.000159601702 -5.55307762e-05     0.0001596017 -5.55307753e-05       0.26338285     0.947226292
12.660392            0.264792822     0.946894815   0.000159807783 -5.56739895e-05   0.000159807781 -5.56739886e-05      0.263740555     0.947115919
12.66042              0.26514793     0.946784676   0.000160014161 -5.58175596e-05    0.00016001416 -5.58175587e-05      0.264098455     0.947005331
12.660448            0.265503232     0.946674324   0.000160220839 -5.59614874e-05   0.000160220837 -5.59614864e-05      0.264456551     0.946894527
12.660476            0.265858728     0.946563759   0.000160427815 -5.61057738e-05   0.000160427813 -5.61057728e-05      0.264814844     0.946783508
12.660504            0.266214417     0.946452981    0.00016063509 -5.62504198e-05   0.000160635089 -5.62504188e-05      0.265173333     0.946672272
12.660532            0.266570301     0.946341989   0.000160842666 -5.63954263e-05   0.000160842664 -5.63954254e-05      0.265532019      0.94656082
12.66056             0.266926378     0.946230782   0.000161050542 -5.65407943e-05    0.00016105054 -5.65407934e-05      0.265890901     0.946449151
12.660588             0.26728265     0.946119361   0.000161258719 -5.66865248e-05   0.000161258717 -5.66865239e-05       0.26624998     0.946337264
12.660616            0.267639116     0.946007726   0.000161467196 -5.68326187e-05   0.000161467195 -5.68326178e-05      0.266609255      0.94622516
12.660644            0.267995777     0.945895875   0.000161675976  -5.6979077e-05   0.000161675974  -5.6979076e-05      0.266968728     0.946112838
12.660672            0.268352633     0.945783808   0.000161885057 -5.71259006e-05   0.000161885055 -5.71258996e-05      0.267328397     0.946000297
12.6607              0.268709683     0.945671526   0.000162094441 -5.72730905e-05   0.000162094439 -5.72730895e-05      0.267688264     0.945887538
12.660728            0.269066928     0.945559027   0.000162304128 -5.74206476e-05   0.000162304126 -5.74206467e-05      0.268048329      0.94577456
12.660756            0.269424368     0.945446312   0.000162514118  -5.7568573e-05   0.000162514116 -5.75685721e-05      0.268408591     0.945661362
12.660784            0.269782004      0.94533338   0.000162724412 -5.77168677e-05    0.00016272441 -5.77168667e-05       0.26876905     0.945547944
12.660812            0.270139834      0.94522023    0.00016293501 -5.78655325e-05   0.000162935008 -5.78655315e-05      0.269129707     0.945434307
12.66084              0.27049786     0.945106863   0.000163145913 -5.80145685e-05   0.000163145911 -5.80145675e-05      0.269490562     0.945320448
12.660868            0.270856082     0.944993278   0.000163357121 -5.81639766e-05   0.000163357119 -5.81639757e-05      0.269851616     0.945206369
12.660896            0.271214499     0.944879474   0.000163568634 -5.83137579e-05   0.000163568632  -5.8313757e-05      0.270212867     0.945092069
12.660924            0.271573113     0.944765452   0.000163780453 -5.84639133e-05   0.000163780451 -5.84639124e-05      0.270574317     0.944977547
12.660952            0.271931922      0.94465121   0.000163992579 -5.86144439e-05   0.000163992577 -5.86144429e-05      0.270935965     0.944862803
12.66098             0.272290927     0.944536749   0.000164205011 -5.87653505e-05    0.00016420501 -5.87653496e-05      0.271297811     0.944747836
12.661008            0.272650129     0.944422068   0.000164417751 -5.89166343e-05   0.000164417749 -5.89166334e-05      0.271659856     0.944632647
12.661036            0.273009526     0.944307167   0.000164630799 -5.90682962e-05   0.000164630797 -5.90682953e-05      0.272022101     0.944517235
12.661064            0.273369121     0.944192045   0.000164844154 -5.92203372e-05   0.000164844152 -5.92203363e-05      0.272384544     0.944401599
12.661092            0.273728911     0.944076703   0.000165057818 -5.93727584e-05   0.000165057817 -5.93727574e-05      0.272747186      0.94428574
12.66112             0.274088899     0.943961139   0.000165271792 -5.95255607e-05    0.00016527179 -5.95255597e-05      0.273110027     0.944169656
12.661148            0.274449084     0.943845353   0.000165486074 -5.96787451e-05   0.000165486072 -5.96787441e-05      0.273473068     0.944053348
12.661176            0.274809465     0.943729346   0.000165700667 -5.98323126e-05   0.000165700665 -5.98323117e-05      0.273836308     0.943936815
12.661204            0.275170044     0.943613116    0.00016591557 -5.99862644e-05   0.000165915568 -5.99862634e-05      0.274199747     0.943820056
12.661232            0.275530819     0.943496663   0.000166130783 -6.01406013e-05   0.000166130782 -6.01406004e-05      0.274563387     0.943703072
12.66126             0.275891793     0.943379987   0.000166346308 -6.02953245e-05   0.000166346306 -6.02953235e-05      0.274927226     0.943585862
12.661288            0.276252963     0.943263088   0.000166562145 -6.04504349e-05   0.000166562143  -6.0450434e-05      0.275291265     0.943468425
12.661316            0.276614332     0.943145965   0.000166778293 -6.06059336e-05   0.000166778292 -6.06059326e-05      0.275655505     0.943350761
12.661344            0.276975898     0.943028618   0.000166994755 -6.07618216e-05   0.000166994753 -6.07618206e-05      0.276019944     0.943232871
12.661372            0.277337662     0.942911046   0.000167211529 -6.09180999e-05   0.000167211527  -6.0918099e-05      0.276384584     0.943114753
12.6614              0.277699624     0.942793249   0.000167428616 -6.10747696e-05   0.000167428614 -6.10747687e-05      0.276749425     0.942996406
12.661428            0.278061784     0.942675227   0.000167646018 -6.12318318e-05   0.000167646016 -6.12318308e-05      0.277114466     0.942877832
12.661456            0.278424142     0.942556979   0.000167863733 -6.13892874e-05   0.000167863732 -6.13892864e-05      0.277479708     0.942759029
12.661484            0.278786699     0.942438505   0.000168081764 -6.15471375e-05   0.000168081762 -6.15471365e-05      0.277845151     0.942639996
12.661512            0.279149455     0.942319804    0.00016830011 -6.17053831e-05   0.000168300108 -6.17053821e-05      0.278210795     0.942520735
12.66154             0.279512409     0.942200877   0.000168518771 -6.18640254e-05   0.000168518769 -6.18640244e-05       0.27857664     0.942401243
12.661568            0.279875562     0.942081722   0.000168737748 -6.20230653e-05   0.000168737747 -6.20230643e-05      0.278942686     0.942281522
12.661596            0.280238914      0.94196234   0.000168957042  -6.2182504e-05   0.000168957041  -6.2182503e-05      0.279308934     0.942161569
12.661624            0.280602465      0.94184273   0.000169176653 -6.23423424e-05   0.000169176652 -6.23423414e-05      0.279675383     0.942041386
12.661652            0.280966215     0.941722892   0.000169396582 -6.25025817e-05    0.00016939658 -6.25025807e-05      0.280042034     0.941920971
12.66168             0.281330164     0.941602825   0.000169616828 -6.26632229e-05   0.000169616826 -6.26632219e-05      0.280408887     0.941800325
12.661708            0.281694313     0.941482529   0.000169837393 -6.28242671e-05   0.000169837391 -6.28242662e-05      0.280775942     0.941679446
12.661736            0.282058662     0.941362003   0.000170058276 -6.29857154e-05   0.000170058274 -6.29857144e-05      0.281143199     0.941558335
12.661764             0.28242321     0.941241248   0.000170279479 -6.31475688e-05   0.000170279477 -6.31475678e-05      0.281510658     0.941436991
12.661792            0.282787958     0.941120262   0.000170501001 -6.33098285e-05   0.000170500999 -6.33098275e-05      0.281878319     0.941315414
12.66182             0.283152906     0.940999046   0.000170722843 -6.34724954e-05   0.000170722842 -6.34724944e-05      0.282246183     0.941193603
12.661848            0.283518054     0.940877598   0.000170945006 -6.36355707e-05   0.000170945005 -6.36355697e-05       0.28261425     0.941071558
12.661876            0.283883402      0.94075592    0.00017116749 -6.37990555e-05   0.000171167488 -6.37990545e-05      0.282982519     0.940949279
12.661904            0.284248951     0.940634009   0.000171390296 -6.39629509e-05   0.000171390294 -6.39629499e-05      0.283350991     0.940826765
12.661932              0.2846147     0.940511867   0.000171613423 -6.41272579e-05   0.000171613421 -6.41272569e-05      0.283719666     0.940704015
12.66196              0.28498065     0.940389492   0.000171836873 -6.42919777e-05   0.000171836871 -6.42919767e-05      0.284088544      0.94058103
12.661988              0.2853468     0.940266884   0.000172060645 -6.44571114e-05   0.000172060643 -6.44571104e-05      0.284457626     0.940457809
12.662016            0.285713152     0.940144042   0.000172284741   -6.462266e-05   0.000172284739  -6.4622659e-05       0.28482691     0.940334351
12.662044            0.286079704     0.940020968    0.00017250916 -6.47886247e-05   0.000172509159 -6.47886237e-05      0.285196399     0.940210657
12.662072            0.286446458     0.939897659   0.000172733904 -6.49550066e-05   0.000172733902 -6.49550056e-05      0.285566091     0.940086726
12.6621              0.286813412     0.939774115   0.000172958972 -6.51218068e-05   0.000172958971 -6.51218058e-05      0.285935987     0.939962556
12.662128            0.287180569     0.939650337   0.000173184366 -6.52890265e-05   0.000173184364 -6.52890255e-05      0.286306086     0.939838149
12.662156            0.287547926     0.939526323   0.000173410084 -6.54566666e-05   0.000173410083 -6.54566656e-05       0.28667639     0.939713504
12.662184            0.287915486     0.939402074   0.000173636129 -6.56247285e-05   0.000173636127 -6.56247275e-05      0.287046898     0.939588619
12.662212            0.288283247     0.939277589   0.000173862501 -6.57932131e-05   0.000173862499 -6.57932121e-05       0.28741761     0.939463496
12.66224              0.28865121     0.939152867   0.000174089199 -6.59621217e-05   0.000174089197 -6.59621207e-05      0.287788526     0.939338133
12.662268            0.289019375     0.939027909   0.000174316224 -6.61314553e-05   0.000174316222 -6.61314543e-05      0.288159648      0.93921253
12.662296            0.289387742     0.938902714   0.000174543577 -6.63012151e-05   0.000174543576 -6.63012141e-05      0.288530973     0.939086686
12.662324            0.289756312      0.93877728   0.000174771259 -6.64714022e-05   0.000174771257 -6.64714012e-05      0.288902504     0.938960602
12.662352            0.290125084     0.938651609   0.000174999269 -6.66420179e-05   0.000174999267 -6.66420168e-05       0.28927424     0.938834277
12.66238             0.290494058       0.9385257   0.000175227608 -6.68130631e-05   0.000175227607 -6.68130621e-05       0.28964618      0.93870771
12.662408            0.290863235     0.938399551   0.000175456277 -6.69845391e-05   0.000175456276 -6.69845381e-05      0.290018326     0.938580901
12.662436            0.291232615     0.938273164   0.000175685276 -6.71564471e-05   0.000175685275 -6.71564461e-05      0.290390677     0.938453849
12.662464            0.291602198     0.938146537   0.000175914606 -6.73287881e-05   0.000175914604 -6.73287871e-05      0.290763234     0.938326555
12.662492            0.291971984      0.93801967   0.000176144266 -6.75015634e-05   0.000176144265 -6.75015624e-05      0.291135996     0.938199018
12.66252             0.292341973     0.937892562   0.000176374258 -6.76747741e-05   0.000176374257 -6.76747731e-05      0.291508964     0.938071237
12.662548            0.292712166     0.937765214   0.000176604582 -6.78484213e-05    0.00017660458 -6.78484203e-05      0.291882138     0.937943212
12.662576            0.293082562     0.937637625   0.000176835238 -6.80225064e-05   0.000176835237 -6.80225053e-05      0.292255518     0.937814942
12.662604            0.293453161     0.937509794   0.000177066227 -6.81970303e-05   0.000177066225 -6.81970292e-05      0.292629104     0.937686428
12.662632            0.293823965     0.937381721    0.00017729755 -6.83719943e-05   0.000177297548 -6.83719932e-05      0.293002896     0.937557668
12.66266             0.294194972     0.937253406   0.000177529205 -6.85473996e-05   0.000177529204 -6.85473985e-05      0.293376894     0.937428663
12.662688            0.294566183     0.937124848   0.000177761196 -6.87232473e-05   0.000177761194 -6.87232463e-05      0.293751099     0.937299412
12.662716            0.294937598     0.936996046    0.00017799352 -6.88995387e-05   0.000177993519 -6.88995377e-05      0.294125511     0.937169914
12.662744            0.295309218     0.936867002    0.00017822618 -6.90762749e-05   0.000178226178 -6.90762739e-05      0.294500129     0.937040169
12.662772            0.295681041     0.936737713   0.000178459176 -6.92534572e-05   0.000178459174 -6.92534561e-05      0.294874955     0.936910177
12.6628               0.29605307     0.936608179   0.000178692507 -6.94310866e-05   0.000178692505 -6.94310856e-05      0.295249987     0.936779937
12.662828            0.296425302     0.936478401   0.000178926175 -6.96091645e-05   0.000178926173 -6.96091635e-05      0.295625226      0.93664945
12.662856             0.29679774     0.936348378    0.00017916018 -6.97876921e-05   0.000179160178  -6.9787691e-05      0.296000673     0.936518713
12.662884            0.297170382     0.936218109   0.000179394522 -6.99666704e-05    0.00017939452 -6.99666694e-05      0.296376327     0.936387728
12.662912             0.29754323     0.936087594   0.000179629202 -7.01461008e-05     0.0001796292 -7.01460998e-05      0.296752189     0.936256493
12.66294             0.297916283     0.935956832   0.000179864221 -7.03259845e-05   0.000179864219 -7.03259835e-05      0.297128258     0.936125008
12.662968             0.29828954     0.935825824   0.000180099578 -7.05063227e-05   0.000180099576 -7.05063216e-05      0.297504535     0.935993273
12.662996            0.298663004     0.935694568   0.000180335274 -7.06871165e-05   0.000180335272 -7.06871154e-05      0.297881021     0.935861288
12.663024            0.299036672     0.935563065    0.00018057131 -7.08683673e-05   0.000180571308 -7.08683662e-05      0.298257714     0.935729051
12.663052            0.299410547     0.935431314   0.000180807687 -7.10500762e-05   0.000180807685 -7.10500751e-05      0.298634615     0.935596563
12.66308             0.299784627     0.935299313   0.000181044403 -7.12322445e-05   0.000181044402 -7.12322435e-05      0.299011725     0.935463823
12.663108            0.300158913     0.935167065   0.000181281461 -7.14148735e-05    0.00018128146 -7.14148724e-05      0.299389043      0.93533083
12.663136            0.300533405     0.935034566   0.000181518861 -7.15979642e-05   0.000181518859 -7.15979632e-05      0.299766569     0.935197585
12.663164            0.300908103     0.934901818   0.000181756603 -7.17815181e-05   0.000181756601 -7.17815171e-05      0.300144304     0.935064087
12.663192            0.301283008      0.93476882   0.000181994687 -7.19655364e-05   0.000181994685 -7.19655353e-05      0.300522249     0.934930335
12.66322             0.301658119     0.934635571   0.000182233113 -7.21500202e-05   0.000182233112 -7.21500192e-05      0.300900402     0.934796329
12.663248            0.302033436     0.934502071   0.000182471884 -7.23349709e-05   0.000182471882 -7.23349698e-05      0.301278764     0.934662068
12.663276             0.30240896     0.934368319   0.000182710998 -7.25203897e-05   0.000182710996 -7.25203886e-05      0.301657335     0.934527553
12.663304            0.302784691     0.934234316   0.000182950457 -7.27062779e-05   0.000182950455 -7.27062768e-05      0.302036116     0.934392782
12.663332            0.303160629      0.93410006    0.00018319026 -7.28926367e-05   0.000183190258 -7.28926356e-05      0.302415106     0.934257755
12.66336             0.303536773     0.933965552   0.000183430409 -7.30794674e-05   0.000183430407 -7.30794663e-05      0.302794306     0.934122473
12.663388            0.303913125      0.93383079   0.000183670903 -7.32667713e-05   0.000183670901 -7.32667702e-05      0.303173715     0.933986933
12.663416            0.304289685     0.933695775   0.000183911743 -7.34545496e-05   0.000183911742 -7.34545485e-05      0.303553335     0.933851137
12.663444            0.304666452     0.933560506   0.000184152931 -7.36428036e-05   0.000184152929 -7.36428026e-05      0.303933164     0.933715083
12.663472            0.305043426     0.933424982   0.000184394465 -7.38315347e-05   0.000184394463 -7.38315336e-05      0.304313204     0.933578771
12.6635              0.305420608     0.933289204   0.000184636347  -7.4020744e-05   0.000184636345  -7.4020743e-05      0.304693453     0.933442201
12.663528            0.305797998      0.93315317   0.000184878577  -7.4210433e-05   0.000184878575 -7.42104319e-05      0.305073913     0.933305372
12.663556            0.306175595     0.933016881   0.000185121155 -7.44006028e-05   0.000185121153 -7.44006017e-05      0.305454584     0.933168283
12.663584            0.306553401     0.932880335   0.000185364083 -7.45912548e-05   0.000185364081 -7.45912537e-05      0.305835465     0.933030935
12.663612            0.306931415     0.932743533   0.000185607359 -7.47823902e-05   0.000185607358 -7.47823891e-05      0.306216557     0.932893327
12.66364             0.307309637     0.932606474   0.000185850986 -7.49740105e-05   0.000185850984 -7.49740094e-05       0.30659786     0.932755459
12.663668            0.307688068     0.932469157   0.000186094963 -7.51661168e-05   0.000186094962 -7.51661157e-05      0.306979373     0.932617329
12.663696            0.308066707     0.932331582   0.000186339291 -7.53587106e-05    0.00018633929 -7.53587095e-05      0.307361098     0.932478938
12.663724            0.308445555     0.932193749   0.000186583971  -7.5551793e-05   0.000186583969 -7.55517919e-05      0.307743034     0.932340285
12.663752            0.308824612     0.932055658   0.000186829002 -7.57453655e-05      0.000186829 -7.57453644e-05      0.308125182      0.93220137
12.66378             0.309203878     0.931917307   0.000187074385 -7.59394294e-05   0.000187074384 -7.59394283e-05      0.308507541     0.932062192
12.663808            0.309583353     0.931778697   0.000187320121 -7.61339859e-05    0.00018732012 -7.61339848e-05      0.308890112      0.93192275
12.663836            0.309963037     0.931639826   0.000187566211 -7.63290365e-05   0.000187566209 -7.63290354e-05      0.309272894     0.931783045
12.663864             0.31034293     0.931500695   0.000187812654 -7.65245824e-05   0.000187812652 -7.65245813e-05      0.309655889     0.931643076
12.663892            0.310723033     0.931361303   0.000188059451  -7.6720625e-05   0.000188059449 -7.67206239e-05      0.310039095     0.931502843
12.66392             0.311103345      0.93122165   0.000188306603 -7.69171657e-05   0.000188306601 -7.69171646e-05      0.310422514     0.931362344
12.663948            0.311483867     0.931081734   0.000188554109 -7.71142057e-05   0.000188554107 -7.71142046e-05      0.310806144      0.93122158
12.663976            0.311864599     0.930941557   0.000188801972 -7.73117465e-05    0.00018880197 -7.73117454e-05      0.311189988      0.93108055
12.664004            0.312245541     0.930801117    0.00018905019 -7.75097894e-05   0.000189050188 -7.75097883e-05      0.311574043     0.930939254
12.664032            0.312626693     0.930660414   0.000189298765 -7.77083357e-05   0.000189298763 -7.77083346e-05      0.311958312      0.93079769
12.66406             0.313008055     0.930519447   0.000189547696 -7.79073868e-05   0.000189547695 -7.79073857e-05      0.312342793      0.93065586
12.664088            0.313389628     0.930378216   0.000189796986 -7.81069442e-05   0.000189796984  -7.8106943e-05      0.312727487     0.930513762
12.664116            0.313771411      0.93023672   0.000190046633  -7.8307009e-05   0.000190046631 -7.83070079e-05      0.313112394     0.930371396
12.664144            0.314153405      0.93009496   0.000190296638 -7.85075828e-05   0.000190296636 -7.85075817e-05      0.313497515     0.930228761
12.664172            0.314535609     0.929952934   0.000190547002 -7.87086669e-05      0.000190547 -7.87086658e-05      0.313882848     0.930085857
12.6642              0.314918024     0.929810642   0.000190797726 -7.89102627e-05   0.000190797724 -7.89102616e-05      0.314268395     0.929942683
12.664228             0.31530065     0.929668085   0.000191048809 -7.91123715e-05   0.000191048807 -7.91123704e-05      0.314654156      0.92979924
12.664256            0.315683488      0.92952526   0.000191300252 -7.93149948e-05    0.00019130025 -7.93149937e-05       0.31504013     0.929655526
12.664284            0.316066536     0.929382168   0.000191552056  -7.9518134e-05   0.000191552055 -7.95181329e-05      0.315426318     0.929511541
12.664312            0.316449796     0.929238809   0.000191804222 -7.97217904e-05    0.00019180422 -7.97217893e-05       0.31581272     0.929367285
12.66434             0.316833267     0.929095181   0.000192056749 -7.99259655e-05   0.000192056747 -7.99259643e-05      0.316199336     0.929222756
12.664368             0.31721695     0.928951285   0.000192309638 -8.01306606e-05   0.000192309636 -8.01306595e-05      0.316586166     0.929077956
12.664396            0.317600845      0.92880712    0.00019256289 -8.03358772e-05   0.000192562888 -8.03358761e-05      0.316973211     0.928932883
12.664424            0.317984951     0.928662685   0.000192816504 -8.05416167e-05   0.000192816503 -8.05416156e-05       0.31736047     0.928787536
12.664452             0.31836927     0.928517981   0.000193070483 -8.07478805e-05   0.000193070481 -8.07478794e-05      0.317747943     0.928641916
12.66448               0.3187538     0.928373006   0.000193324825 -8.09546701e-05   0.000193324823 -8.09546689e-05      0.318135631     0.928496022
12.664508            0.319138543      0.92822776   0.000193579532 -8.11619868e-05    0.00019357953 -8.11619856e-05      0.318523534     0.928349853
12.664536            0.319523498     0.928082243   0.000193834604  -8.1369832e-05   0.000193834602 -8.13698309e-05      0.318911652     0.928203409
12.664564            0.319908666     0.927936454   0.000194090041 -8.15782074e-05   0.000194090039 -8.15782062e-05      0.319299985      0.92805669
12.664592            0.320294046     0.927790393   0.000194345844 -8.17871141e-05   0.000194345842  -8.1787113e-05      0.319688533     0.927909694
12.66462             0.320679639      0.92764406   0.000194602013 -8.19965538e-05   0.000194602011 -8.19965527e-05      0.320077296     0.927762422
12.664648            0.321065444     0.927497453   0.000194858549 -8.22065278e-05   0.000194858548 -8.22065267e-05      0.320466275     0.927614873
12.664676            0.321451463     0.927350573   0.000195115453 -8.24170377e-05   0.000195115451 -8.24170365e-05      0.320855469     0.927467047
12.664704            0.321837695     0.927203418   0.000195372724 -8.26280848e-05   0.000195372723 -8.26280836e-05      0.321244879     0.927318942
12.664732             0.32222414     0.927055989   0.000195630364 -8.28396706e-05   0.000195630362 -8.28396695e-05      0.321634505     0.927170559
12.66476             0.322610798     0.926908285   0.000195888372 -8.30517966e-05    0.00019588837 -8.30517955e-05      0.322024347     0.927021898
12.664788             0.32299767     0.926760305    0.00019614675 -8.32644643e-05   0.000196146748 -8.32644632e-05      0.322414405     0.926872957
12.664816            0.323384756      0.92661205   0.000196405497 -8.34776751e-05   0.000196405495  -8.3477674e-05      0.322804679     0.926723736
12.664844            0.323772055     0.926463518   0.000196664614 -8.36914305e-05   0.000196664612 -8.36914294e-05      0.323195169     0.926574234
12.664872            0.324159568     0.926314709   0.000196924102 -8.39057321e-05     0.0001969241 -8.39057309e-05      0.323585876     0.926424452
12.6649              0.324547295     0.926165623   0.000197183961 -8.41205811e-05   0.000197183959   -8.412058e-05      0.323976799     0.926274389
12.664928            0.324935236     0.926016259   0.000197444192 -8.43359793e-05    0.00019744419 -8.43359781e-05      0.324367939     0.926124044
12.664956            0.325323391     0.925866617   0.000197704795  -8.4551928e-05   0.000197704793 -8.45519269e-05      0.324759295     0.925973417
12.664984             0.32571176     0.925716696    0.00019796577 -8.47684288e-05   0.000197965768 -8.47684276e-05      0.325150869     0.925822507
12.665012            0.326100344     0.925566496   0.000198227118 -8.49854831e-05   0.000198227116  -8.4985482e-05       0.32554266     0.925671314
12.66504             0.326489143     0.925416016   0.000198488839 -8.52030926e-05   0.000198488838 -8.52030914e-05      0.325934667     0.925519837
12.665068            0.326878156     0.925265255   0.000198750935 -8.54212586e-05   0.000198750933 -8.54212574e-05      0.326326893     0.925368076
12.665096            0.327267384     0.925114214   0.000199013405 -8.56399827e-05   0.000199013403 -8.56399815e-05      0.326719335     0.925216031
12.665124            0.327656828     0.924962892    0.00019927625 -8.58592664e-05   0.000199276248 -8.58592652e-05      0.327111995       0.9250637
12.665152            0.328046486     0.924811289    0.00019953947 -8.60791113e-05   0.000199539468 -8.60791101e-05      0.327504873     0.924911084
12.66518             0.328436359     0.924659403   0.000199803066 -8.62995188e-05   0.000199803064 -8.62995177e-05      0.327897968     0.924758181
12.665208            0.328826448     0.924507234   0.000200067038 -8.65204906e-05   0.000200067036 -8.65204894e-05      0.328291282     0.924604992
12.665236            0.329216752     0.924354783   0.000200331387 -8.67420281e-05   0.000200331385 -8.67420269e-05      0.328684813     0.924451516
12.665264            0.329607271     0.924202048   0.000200596113 -8.69641329e-05   0.000200596111 -8.69641318e-05      0.329078563     0.924297752
12.665292            0.329998007     0.924049029   0.000200861217 -8.71868066e-05   0.000200861215 -8.71868054e-05       0.32947253       0.9241437
12.66532             0.330388958     0.923895725   0.000201126699 -8.74100507e-05   0.000201126697 -8.74100495e-05      0.329866717     0.923989359
12.665348            0.330780125     0.923742136    0.00020139256 -8.76338667e-05   0.000201392558 -8.76338655e-05      0.330261121      0.92383473
12.665376            0.331171508     0.923588262     0.0002016588 -8.78582562e-05   0.000201658798  -8.7858255e-05      0.330655745     0.923679811
12.665404            0.331563107     0.923434101    0.00020192542 -8.80832208e-05   0.000201925418 -8.80832196e-05      0.331050587     0.923524602