! TOUCHSTONE file generated by CST MICROWAVE STUDIO
! Date and time: Wed Jul 31 11:30:54 2024
! Project name: WaveGuide_BPF-Ver4.1_U-shape_Ku_T3_C4_CWA_2.cst
! Parameters = {cavity_h=16; cavity_l0=10; cavity_l1=15.2206; cavity_l2=16.8226; cavity_l3=17.0947; cavity_l4=17.2669; cavity_l5=17.1517; cavity_l6=17.6213; cavity_r=2.5; cavity_screw_l=0.5; cavity_screw_r=1.5; cavity_w=8; iris_h00=0; iris_h01=8.7992; iris_h112=0; iris_h12=5.6051; iris_h211=3.6585; iris_h23=5.2094; iris_h310=3.976; iris_h34=5.0798; iris_h45=4.9257; iris_h49=4.617; iris_h56=4.7957; iris_h58=4.445; iris_h67=6.566; iris_rx=0.1; iris_screw_l=0.5; iris_screw_r=1.5; iris_shift00=0; iris_shift112=0; iris_shift211=3.5; iris_shift310=0; iris_shift49=0; iris_shift58=3.5; iris_shift67=3.5; iris_tx=4.5; iris_tz=4.5; iris_w00=0; iris_w112=0; iris_w211=4; iris_w310=3.976; iris_w49=4.617; iris_w58=4; iris_w67=4; mesh_cavity=5; mesh_iris=7; mesh_screw=7; order=12; reset_all=0; sigma=4.8e+07}
! Header version: 2018
! Port assignment regex: !\s*Touchstone port\s*([0-9]+)\s*=\s*(CST MWS port|CST DS port)\s*([0-9]+|Zmin|Zmax)\s*\(\"(.*)\"\)(\s*mode\s*([0-9]+))?.*
! Touchstone port assignment:
! Touchstone port 1 = CST MWS port 1 ("")
! Touchstone port 2 = CST MWS port 2 ("")
# GHz S RI R 50
12.66                0.327098941     0.924217226    0.00021194489 -9.28744829e-05    0.00021194489 -9.28744829e-05      0.336582097     0.920687711
12.660028             0.32750719     0.924057879   0.000212226767 -9.31173621e-05   0.000212226767 -9.31173621e-05      0.336992736     0.920522473
12.660056            0.327915642     0.923898233   0.000212509047 -9.33608686e-05   0.000212509047 -9.33608687e-05      0.337403584     0.920356927
12.660084            0.328324311     0.923738282   0.000212791729 -9.36050065e-05   0.000212791729 -9.36050065e-05      0.337814651     0.920191068
12.660112             0.32873321     0.923578022    0.00021307481 -9.38497798e-05    0.00021307481 -9.38497798e-05      0.338225949     0.920024891
12.66014             0.329142352     0.923417448   0.000213358289 -9.40951925e-05   0.000213358289 -9.40951926e-05      0.338637489     0.919858392
12.660168            0.329551738     0.923256559   0.000213642166 -9.43412466e-05   0.000213642166 -9.43412466e-05      0.339049273     0.919691569
12.660196            0.329961358     0.923095358   0.000213926443 -9.45879421e-05   0.000213926444 -9.45879422e-05      0.339461292     0.919524426
12.660224            0.330371213     0.922933843   0.000214211122  -9.4835281e-05   0.000214211122  -9.4835281e-05      0.339873546      0.91935696
12.660252            0.330781303     0.922772015   0.000214496201 -9.50832648e-05   0.000214496201 -9.50832649e-05      0.340286036     0.919189173
12.66028             0.331191628     0.922609873   0.000214781682 -9.53318955e-05   0.000214781682 -9.53318956e-05      0.340698761     0.919021064
12.660308            0.331602189     0.922447416   0.000215067565 -9.55811748e-05   0.000215067566 -9.55811749e-05      0.341111723     0.918852631
12.660336            0.332012985     0.922284644   0.000215353851 -9.58311046e-05   0.000215353851 -9.58311046e-05       0.34152492     0.918683874
12.660364            0.332424016     0.922121556    0.00021564054 -9.60816865e-05    0.00021564054 -9.60816866e-05      0.341938353     0.918514793
12.660392            0.332835283     0.921958151   0.000215927632 -9.63329225e-05   0.000215927632 -9.63329226e-05      0.342352023     0.918345386
12.66042             0.333246786      0.92179443   0.000216215128 -9.65848143e-05   0.000216215128 -9.65848144e-05      0.342765929     0.918175655
12.660448            0.333658525     0.921630391   0.000216503029 -9.68373638e-05   0.000216503029 -9.68373639e-05      0.343180071     0.918005597
12.660476              0.3340705     0.921466034   0.000216791334 -9.70905727e-05   0.000216791334 -9.70905728e-05       0.34359445     0.917835212
12.660504            0.334482711     0.921301359   0.000217080045  -9.7344443e-05   0.000217080045 -9.73444431e-05      0.344009065     0.917664501
12.660532            0.334895159     0.921136364   0.000217369161 -9.75989764e-05   0.000217369161 -9.75989764e-05      0.344423918     0.917493461
12.66056             0.335307842      0.92097105   0.000217658683 -9.78541747e-05   0.000217658684 -9.78541748e-05      0.344839007     0.917322093
12.660588            0.335720763     0.920805415   0.000217948613 -9.81100399e-05   0.000217948613   -9.811004e-05      0.345254333     0.917150396
12.660616             0.33613392      0.92063946   0.000218238949 -9.83665738e-05   0.000218238949 -9.83665738e-05      0.345669897     0.916978369
12.660644            0.336547314     0.920473183   0.000218529693 -9.86237781e-05   0.000218529693 -9.86237782e-05      0.346085698     0.916806012
12.660672            0.336960945     0.920306584   0.000218820845 -9.88816549e-05   0.000218820845 -9.88816549e-05      0.346501736     0.916633325
12.6607              0.337374813     0.920139662   0.000219112405 -9.91402059e-05   0.000219112405 -9.91402059e-05      0.346918012     0.916460306
12.660728            0.337788918     0.919972417   0.000219404374  -9.9399433e-05   0.000219404374 -9.93994331e-05      0.347334526     0.916286954
12.660756            0.338203261     0.919804848   0.000219696753 -9.96593381e-05   0.000219696753 -9.96593382e-05      0.347751277     0.916113271
12.660784            0.338617841     0.919636955   0.000219989541 -9.99199231e-05   0.000219989541 -9.99199232e-05      0.348168267     0.915939254
12.660812            0.339032658     0.919468737   0.000220282739  -0.00010018119    0.00022028274  -0.00010018119      0.348585494     0.915764903
12.66084             0.339447714     0.919300194   0.000220576349  -0.00010044314   0.000220576349  -0.00010044314       0.34900296     0.915590218
12.660868            0.339863007     0.919131324   0.000220870369 -0.000100705776   0.000220870369 -0.000100705776      0.349420664     0.915415198
12.660896            0.340278538     0.918962128   0.000221164801   -0.0001009691   0.000221164801   -0.0001009691      0.349838606     0.915239843
12.660924            0.340694307     0.918792605   0.000221459645 -0.000101233112   0.000221459645 -0.000101233113      0.350256787     0.915064151
12.660952            0.341110315     0.918622753   0.000221754902 -0.000101497817   0.000221754902 -0.000101497817      0.350675207     0.914888123
12.66098             0.341526561     0.918452574   0.000222050571 -0.000101763214   0.000222050571 -0.000101763214      0.351093865     0.914711757
12.661008            0.341943045     0.918282065   0.000222346654 -0.000102029306   0.000222346654 -0.000102029306      0.351512763     0.914535053
12.661036            0.342359768     0.918111226   0.000222643151 -0.000102296096   0.000222643151 -0.000102296096      0.351931899     0.914358011
12.661064             0.34277673     0.917940058   0.000222940062 -0.000102563584   0.000222940062 -0.000102563584      0.352351275     0.914180629
12.661092            0.343193931     0.917768558   0.000223237387 -0.000102831774   0.000223237387 -0.000102831774       0.35277089     0.914002908
12.66112              0.34361137     0.917596728   0.000223535128 -0.000103100666   0.000223535128 -0.000103100666      0.353190744     0.913824846
12.661148            0.344029049     0.917424565   0.000223833284 -0.000103370263   0.000223833285 -0.000103370263      0.353610838     0.913646443
12.661176            0.344446967     0.917252069   0.000224131857 -0.000103640567   0.000224131857 -0.000103640567      0.354031171     0.913467699
12.661204            0.344865125     0.917079241   0.000224430846  -0.00010391158   0.000224430846  -0.00010391158      0.354451745     0.913288612
12.661232            0.345283521     0.916906079   0.000224730252 -0.000104183303   0.000224730252 -0.000104183304      0.354872558     0.913109182
12.66126             0.345702158     0.916732582   0.000225030075  -0.00010445574   0.000225030075  -0.00010445574      0.355293611     0.912929409
12.661288            0.346121034      0.91655875   0.000225330316 -0.000104728891   0.000225330316 -0.000104728891      0.355714904     0.912749292
12.661316             0.34654015     0.916384583   0.000225630975 -0.000105002758   0.000225630975 -0.000105002758      0.356136438      0.91256883
12.661344            0.346959506      0.91621008   0.000225932053 -0.000105277345   0.000225932053 -0.000105277345      0.356558212     0.912388023
12.661372            0.347379103      0.91603524    0.00022623355 -0.000105552652    0.00022623355 -0.000105552652      0.356980226      0.91220687
12.6614              0.347798939     0.915860062   0.000226535467 -0.000105828682   0.000226535467 -0.000105828682      0.357402481      0.91202537
12.661428            0.348219016     0.915684547   0.000226837804 -0.000106105436   0.000226837804 -0.000106105436      0.357824977     0.911843523
12.661456            0.348639333     0.915508693   0.000227140561 -0.000106382917   0.000227140561 -0.000106382917      0.358247713     0.911661328
12.661484            0.349059891       0.9153325   0.000227443739 -0.000106661127   0.000227443739 -0.000106661128      0.358670691     0.911478785
12.661512             0.34948069     0.915155966   0.000227747338 -0.000106940068   0.000227747338 -0.000106940068      0.359093909     0.911295893
12.66154              0.34990173     0.914979093   0.000228051359 -0.000107219742   0.000228051359 -0.000107219742      0.359517369     0.911112651
12.661568             0.35032301     0.914801878   0.000228355802 -0.000107500151   0.000228355802 -0.000107500151       0.35994107     0.910929058
12.661596            0.350744532     0.914624322   0.000228660668 -0.000107781296   0.000228660668 -0.000107781296      0.360365013     0.910745115
12.661624            0.351166295     0.914446424   0.000228965956  -0.00010806318   0.000228965957 -0.000108063181      0.360789197      0.91056082
12.661652            0.351588299     0.914268183   0.000229271669 -0.000108345806   0.000229271669 -0.000108345806      0.361213623     0.910376173
12.66168             0.352010545     0.914089598   0.000229577805 -0.000108629175   0.000229577805 -0.000108629175       0.36163829     0.910191173
12.661708            0.352433032     0.913910669   0.000229884365 -0.000108913288   0.000229884365 -0.000108913288        0.3620632     0.910005819
12.661736            0.352855761     0.913731395    0.00023019135 -0.000109198149   0.000230191351  -0.00010919815      0.362488351     0.909820112
12.661764            0.353278732     0.913551776   0.000230498761  -0.00010948376   0.000230498761  -0.00010948376      0.362913745     0.909634049
12.661792            0.353701945     0.913371811   0.000230806597 -0.000109770122   0.000230806597 -0.000109770122      0.363339381     0.909447631
12.66182               0.3541254       0.9131915   0.000231114859 -0.000110057237   0.000231114859 -0.000110057237      0.363765259     0.909260857
12.661848            0.354549097     0.913010841   0.000231423547 -0.000110345108   0.000231423548 -0.000110345108      0.364191379     0.909073726
12.661876            0.354973036     0.912829834   0.000231732663 -0.000110633737   0.000231732663 -0.000110633737      0.364617743     0.908886238
12.661904            0.355397218     0.912648479   0.000232042206 -0.000110923126   0.000232042206 -0.000110923126      0.365044349     0.908698392
12.661932            0.355821642     0.912466775   0.000232352176 -0.000111213277   0.000232352176 -0.000111213277      0.365471197     0.908510187
12.66196             0.356246309     0.912284721   0.000232662575 -0.000111504191   0.000232662575 -0.000111504191      0.365898289     0.908321623
12.661988            0.356671219     0.912102316   0.000232973402 -0.000111795873   0.000232973402 -0.000111795873      0.366325624     0.908132699
12.662016            0.357096372     0.911919561   0.000233284658 -0.000112088322   0.000233284658 -0.000112088322      0.366753202     0.907943414
12.662044            0.357521768     0.911736454   0.000233596344 -0.000112381542   0.000233596344 -0.000112381542      0.367181023     0.907753769
12.662072            0.357947406     0.911552995   0.000233908459 -0.000112675535   0.000233908459 -0.000112675535      0.367609087     0.907563761
12.6621              0.358373289     0.911369182   0.000234221005 -0.000112970303   0.000234221005 -0.000112970303      0.368037395      0.90737339
12.662128            0.358799414     0.911185017   0.000234533981 -0.000113265847   0.000234533981 -0.000113265847      0.368465947     0.907182657
12.662156            0.359225783     0.911000497   0.000234847389 -0.000113562171   0.000234847389 -0.000113562171      0.368894742     0.906991559
12.662184            0.359652396     0.910815622   0.000235161228 -0.000113859276   0.000235161228 -0.000113859276      0.369323782     0.906800097
12.662212            0.360079252     0.910630392   0.000235475499 -0.000114157165   0.000235475499 -0.000114157165      0.369753065      0.90660827
12.66224             0.360506353     0.910444805   0.000235790202  -0.00011445584   0.000235790202  -0.00011445584      0.370182592     0.906416077
12.662268            0.360933697     0.910258862   0.000236105338 -0.000114755303   0.000236105338 -0.000114755303      0.370612363     0.906223517
12.662296            0.361361285     0.910072561   0.000236420907 -0.000115055555   0.000236420907 -0.000115055555      0.371042379      0.90603059
12.662324            0.361789118     0.909885903    0.00023673691 -0.000115356601    0.00023673691 -0.000115356601      0.371472639     0.905837295
12.662352            0.362217194     0.909698886   0.000237053346  -0.00011565844   0.000237053347  -0.00011565844      0.371903143     0.905643632
12.66238             0.362645516     0.909511509   0.000237370217 -0.000115961077   0.000237370218 -0.000115961077      0.372333892       0.9054496
12.662408            0.363074081     0.909323772   0.000237687523 -0.000116264513   0.000237687524 -0.000116264513      0.372764886     0.905255197
12.662436            0.363502892     0.909135675   0.000238005264  -0.00011656875   0.000238005265  -0.00011656875      0.373196124     0.905060424
12.662464            0.363931947     0.908947216   0.000238323441  -0.00011687379   0.000238323441  -0.00011687379      0.373627608      0.90486528
12.662492            0.364361247     0.908758396   0.000238642054 -0.000117179637   0.000238642054 -0.000117179637      0.374059336     0.904669764
12.66252             0.364790792     0.908569212   0.000238961103 -0.000117486291   0.000238961103 -0.000117486291       0.37449131     0.904473876
12.662548            0.365220583     0.908379666   0.000239280589 -0.000117793756   0.000239280589 -0.000117793756      0.374923529     0.904277614
12.662576            0.365650618     0.908189755   0.000239600512 -0.000118102033   0.000239600513 -0.000118102033      0.375355993     0.904080978
12.662604            0.366080899      0.90799948   0.000239920873 -0.000118411125   0.000239920873 -0.000118411125      0.375788703     0.903883968
12.662632            0.366511425      0.90780884   0.000240241672 -0.000118721035   0.000240241672 -0.000118721035      0.376221658     0.903686582
12.66266             0.366942197     0.907617834   0.000240562909 -0.000119031764    0.00024056291 -0.000119031764      0.376654859     0.903488821
12.662688            0.367373214     0.907426461   0.000240884585 -0.000119343314   0.000240884586 -0.000119343314      0.377088306     0.903290683
12.662716            0.367804478     0.907234721   0.000241206701 -0.000119655689   0.000241206701 -0.000119655689      0.377521998     0.903092167
12.662744            0.368235987     0.907042613   0.000241529256  -0.00011996889   0.000241529256  -0.00011996889      0.377955937     0.902893273
12.662772            0.368667742     0.906850136   0.000241852251  -0.00012028292   0.000241852251  -0.00012028292      0.378390121     0.902694001
12.6628              0.369099743      0.90665729   0.000242175686 -0.000120597781   0.000242175686 -0.000120597781      0.378824552     0.902494349
12.662828            0.369531991     0.906464074   0.000242499562 -0.000120913475   0.000242499562 -0.000120913475      0.379259229     0.902294317
12.662856            0.369964485     0.906270488    0.00024282388 -0.000121230004    0.00024282388 -0.000121230005      0.379694153     0.902093905
12.662884            0.370397225      0.90607653   0.000243148639 -0.000121547372   0.000243148639 -0.000121547372      0.380129323     0.901893111
12.662912            0.370830212       0.9058822   0.000243473839 -0.000121865581    0.00024347384 -0.000121865581       0.38056474     0.901691934
12.66294             0.371263446     0.905687498   0.000243799483 -0.000122184632   0.000243799483 -0.000122184632      0.381000403     0.901490375
12.662968            0.371696926     0.905492422   0.000244125569 -0.000122504528   0.000244125569 -0.000122504528      0.381436313     0.901288432
12.662996            0.372130653     0.905296972   0.000244452098 -0.000122825271   0.000244452098 -0.000122825271       0.38187247     0.901086105
12.663024            0.372564627     0.905101148    0.00024477907 -0.000123146865   0.000244779071 -0.000123146865      0.382308874     0.900883393
12.663052            0.372998849     0.904904948   0.000245106487 -0.000123469311   0.000245106487 -0.000123469311      0.382745525     0.900680296
12.66308             0.373433317     0.904708372   0.000245434348 -0.000123792611   0.000245434348 -0.000123792611      0.383182424     0.900476811
12.663108            0.373868033      0.90451142   0.000245762653 -0.000124116769   0.000245762653 -0.000124116769       0.38361957      0.90027294
12.663136            0.374302996      0.90431409   0.000246091404 -0.000124441786   0.000246091404 -0.000124441786      0.384056963     0.900068681
12.663164            0.374738207     0.904116382   0.000246420599 -0.000124767665     0.0002464206 -0.000124767665      0.384494604     0.899864034
12.663192            0.375173666     0.903918295   0.000246750241 -0.000125094408   0.000246750241 -0.000125094408      0.384932492     0.899658997
12.66322             0.375609372     0.903719828   0.000247080329 -0.000125422018   0.000247080329 -0.000125422018      0.385370628      0.89945357
12.663248            0.376045326     0.903520982   0.000247410863 -0.000125750497   0.000247410863 -0.000125750497      0.385809012     0.899247753
12.663276            0.376481528     0.903321754   0.000247741844 -0.000126079848   0.000247741844 -0.000126079848      0.386247643     0.899041544
12.663304            0.376917978     0.903122145   0.000248073273 -0.000126410073   0.000248073273 -0.000126410073      0.386686523     0.898834943
12.663332            0.377354676     0.902922154   0.000248405149 -0.000126741174   0.000248405149 -0.000126741174      0.387125651      0.89862795
12.66336             0.377791623     0.902721779   0.000248737473 -0.000127073155   0.000248737473 -0.000127073155      0.387565027     0.898420562
12.663388            0.378228818     0.902521021   0.000249070245 -0.000127406017   0.000249070246 -0.000127406017      0.388004652     0.898212781
12.663416            0.378666261     0.902319879   0.000249403467 -0.000127739763   0.000249403467 -0.000127739763      0.388444524     0.898004605
12.663444            0.379103953     0.902118351   0.000249737137 -0.000128074395   0.000249737137 -0.000128074395      0.388884646     0.897796033
12.663472            0.379541894     0.901916438   0.000250071257 -0.000128409917   0.000250071257 -0.000128409917      0.389325016     0.897587064
12.6635              0.379980083     0.901714138   0.000250405826  -0.00012874633   0.000250405826  -0.00012874633      0.389765634     0.897377698
12.663528            0.380418522     0.901511451   0.000250740846 -0.000129083637   0.000250740846 -0.000129083637      0.390206501     0.897167935
12.663556            0.380857209     0.901308376   0.000251076316  -0.00012942184   0.000251076316  -0.00012942184      0.390647618     0.896957773
12.663584            0.381296146     0.901104912   0.000251412237 -0.000129760942   0.000251412238 -0.000129760942      0.391088983     0.896747211
12.663612            0.381735331      0.90090106    0.00025174861 -0.000130100946    0.00025174861 -0.000130100946      0.391530597      0.89653625
12.66364             0.382174766     0.900696817   0.000252085434 -0.000130441854   0.000252085434 -0.000130441855       0.39197246     0.896324888
12.663668             0.38261445     0.900492183    0.00025242271 -0.000130783669    0.00025242271 -0.000130783669      0.392414573     0.896113124
12.663696            0.383054384     0.900287158   0.000252760438 -0.000131126393   0.000252760438 -0.000131126393      0.392856935     0.895900957
12.663724            0.383494568      0.90008174   0.000253098619 -0.000131470029   0.000253098619 -0.000131470029      0.393299546     0.895688388
12.663752            0.383935001      0.89987593   0.000253437253 -0.000131814579   0.000253437253 -0.000131814579      0.393742407     0.895475415
12.66378             0.384375684     0.899669726    0.00025377634 -0.000132160046   0.000253776341 -0.000132160046      0.394185518     0.895262038
12.663808            0.384816617     0.899463127   0.000254115881 -0.000132506433   0.000254115882 -0.000132506433      0.394628878     0.895048255
12.663836            0.385257799     0.899256134   0.000254455876 -0.000132853741   0.000254455877 -0.000132853741      0.395072488     0.894834067
12.663864            0.385699232     0.899048745   0.000254796326 -0.000133201975   0.000254796326 -0.000133201975      0.395516348     0.894619471
12.663892            0.386140915     0.898840959    0.00025513723 -0.000133551136    0.00025513723 -0.000133551136      0.395960458     0.894404468
12.66392             0.386582849     0.898632776   0.000255478589 -0.000133901226   0.000255478589 -0.000133901226      0.396404818     0.894189057
12.663948            0.387025032     0.898424195   0.000255820403 -0.000134252249   0.000255820404  -0.00013425225      0.396849428     0.893973237
12.663976            0.387467466     0.898215215   0.000256162674 -0.000134604208   0.000256162674 -0.000134604208      0.397294288     0.893757007
12.664004            0.387910151     0.898005835     0.0002565054 -0.000134957104     0.0002565054 -0.000134957104      0.397739399     0.893540367
12.664032            0.388353087     0.897796056   0.000256848582 -0.000135310941   0.000256848583 -0.000135310941       0.39818476     0.893323315
12.66406             0.388796273     0.897585875   0.000257192222 -0.000135665721   0.000257192222 -0.000135665721      0.398630372     0.893105851
12.664088             0.38923971     0.897375293   0.000257536318 -0.000136021447   0.000257536318 -0.000136021447      0.399076234     0.892887975
12.664116            0.389683398     0.897164309   0.000257880872 -0.000136378121   0.000257880872 -0.000136378121      0.399522347     0.892669685
12.664144            0.390127337     0.896952921   0.000258225883 -0.000136735747   0.000258225883 -0.000136735747      0.399968711     0.892450981
12.664172            0.390571527     0.896741129   0.000258571352 -0.000137094326   0.000258571352 -0.000137094326      0.400415325     0.892231861
12.6642              0.391015969     0.896528933    0.00025891728 -0.000137453862    0.00025891728 -0.000137453862       0.40086219     0.892012326
12.664228            0.391460661     0.896316331   0.000259263666 -0.000137814357   0.000259263666 -0.000137814357      0.401309307     0.891792374
12.664256            0.391905605     0.896103323   0.000259610511 -0.000138175814   0.000259610512 -0.000138175814      0.401756674     0.891572005
12.664284            0.392350801     0.895889908   0.000259957816 -0.000138538236   0.000259957816 -0.000138538236      0.402204293     0.891351218
12.664312            0.392796248     0.895676086    0.00026030558 -0.000138901625    0.00026030558 -0.000138901625      0.402652163     0.891130011
12.66434             0.393241947     0.895461855   0.000260653804 -0.000139265985   0.000260653804 -0.000139265985      0.403100284     0.890908385
12.664368            0.393687898     0.895247215   0.000261002488 -0.000139631317   0.000261002488 -0.000139631317      0.403548657     0.890686339
12.664396            0.394134101     0.895032165   0.000261351633 -0.000139997625   0.000261351633 -0.000139997625      0.403997281     0.890463871
12.664424            0.394580555     0.894816705   0.000261701238 -0.000140364912   0.000261701238 -0.000140364912      0.404446157     0.890240982
12.664452            0.395027262     0.894600833   0.000262051304 -0.000140733179   0.000262051305 -0.000140733179      0.404895285     0.890017669
12.66448              0.39547422     0.894384549   0.000262401832 -0.000141102431   0.000262401833 -0.000141102431      0.405344664     0.889793933
12.664508            0.395921431     0.894167852   0.000262752822 -0.000141472669   0.000262752822 -0.000141472669      0.405794295     0.889569773
12.664536            0.396368895     0.893950741   0.000263104273 -0.000141843897   0.000263104274 -0.000141843897      0.406244178     0.889345187
12.664564             0.39681661     0.893733216   0.000263456187 -0.000142216118   0.000263456188 -0.000142216118      0.406694313     0.889120176
12.664592            0.397264579     0.893515275   0.000263808564 -0.000142589333   0.000263808564 -0.000142589333        0.4071447     0.888894737
12.66462             0.397712799     0.893296919   0.000264161403 -0.000142963547   0.000264161403 -0.000142963547      0.407595339     0.888668871
12.664648            0.398161273     0.893078145   0.000264514706 -0.000143338761   0.000264514706 -0.000143338761       0.40804623     0.888442577
12.664676            0.398609999     0.892858954   0.000264868471 -0.000143714979   0.000264868472 -0.000143714979      0.408497374     0.888215854
12.664704            0.399058978     0.892639345   0.000265222701 -0.000144092203   0.000265222701 -0.000144092203       0.40894877     0.887988701
12.664732             0.39950821     0.892419317   0.000265577395 -0.000144470437   0.000265577395 -0.000144470437      0.409400418     0.887761117
12.66476             0.399957694     0.892198869   0.000265932553 -0.000144849683   0.000265932553 -0.000144849683      0.409852319     0.887533101
12.664788            0.400407432        0.891978   0.000266288175 -0.000145229944   0.000266288175 -0.000145229944      0.410304473     0.887304654
12.664816            0.400857423      0.89175671   0.000266644262 -0.000145611223   0.000266644263 -0.000145611224      0.410756879     0.887075773
12.664844            0.401307668     0.891534997   0.000267000815 -0.000145993523   0.000267000815 -0.000145993523      0.411209538     0.886846458
12.664872            0.401758165     0.891312862   0.000267357833 -0.000146376847   0.000267357833 -0.000146376847       0.41166245     0.886616709
12.6649              0.402208916     0.891090303   0.000267715316 -0.000146761197   0.000267715316 -0.000146761198      0.412115615     0.886386524
12.664928            0.402659921     0.890867319   0.000268073265 -0.000147146577   0.000268073266 -0.000147146577      0.412569032     0.886155902
12.664956            0.403111179      0.89064391   0.000268431681  -0.00014753299   0.000268431681  -0.00014753299      0.413022703     0.885924844
12.664984            0.403562691     0.890420074   0.000268790563 -0.000147920438   0.000268790563 -0.000147920438      0.413476627     0.885693347
12.665012            0.404014457     0.890195812   0.000269149911 -0.000148308924   0.000269149912 -0.000148308924      0.413930804     0.885461412
12.66504             0.404466476     0.889971122   0.000269509727 -0.000148698451   0.000269509727 -0.000148698451      0.414385234     0.885229037
12.665068            0.404918749     0.889746004    0.00026987001 -0.000149089023    0.00026987001 -0.000149089023      0.414839918     0.884996222
12.665096            0.405371276     0.889520456    0.00027023076 -0.000149480642    0.00027023076 -0.000149480642      0.415294854     0.884762966
12.665124            0.405824058     0.889294478   0.000270591978 -0.000149873311   0.000270591978 -0.000149873311      0.415750045     0.884529267
12.665152            0.406277093     0.889068069   0.000270953664 -0.000150267033   0.000270953664 -0.000150267033      0.416205489     0.884295126
12.66518             0.406730382     0.888841229   0.000271315818 -0.000150661812   0.000271315818 -0.000150661812      0.416661186      0.88406054
12.665208            0.407183926     0.888613956   0.000271678441 -0.000151057649   0.000271678441 -0.000151057649      0.417117137     0.883825511
12.665236            0.407637724     0.888386249   0.000272041532 -0.000151454549   0.000272041532 -0.000151454549      0.417573342     0.883590036
12.665264            0.408091777     0.888158109   0.000272405092 -0.000151852514   0.000272405092 -0.000151852514        0.4180298     0.883354114
12.665292            0.408546084     0.887929533   0.000272769121 -0.000152251547   0.000272769121 -0.000152251548      0.418486513     0.883117746
12.66532             0.409000646     0.887700522    0.00027313362 -0.000152651652    0.00027313362 -0.000152651652      0.418943479      0.88288093
12.665348            0.409455462     0.887471074   0.000273498588 -0.000153052831   0.000273498588 -0.000153052831      0.419400699     0.882643665
12.665376            0.409910533     0.887241189   0.000273864026 -0.000153455087   0.000273864026 -0.000153455087      0.419858173     0.882405951
12.665404            0.410365859     0.887010865   0.000274229934 -0.000153858424   0.000274229935 -0.000153858424      0.420315902     0.882167786