! TOUCHSTONE file generated by CST MICROWAVE STUDIO
! Date and time: Wed Jul 31 11:37:07 2024
! Project name: WaveGuide_BPF-Ver4.1_U-shape_Ku_T3_C4_CWA_2.cst
! Parameters = {cavity_h=16; cavity_l0=10; cavity_l1=15.2102; cavity_l2=16.8191; cavity_l3=17.0803; cavity_l4=17.3017; cavity_l5=17.0952; cavity_l6=17.5706; cavity_r=2.5; cavity_screw_l=0.5; cavity_screw_r=1.5; cavity_w=8; iris_h00=0; iris_h01=8.8388; iris_h112=0; iris_h12=5.6139; iris_h211=3.6607; iris_h23=5.2068; iris_h310=3.9616; iris_h34=5.0825; iris_h45=4.9381; iris_h49=4.6196; iris_h56=4.7967; iris_h58=4.448; iris_h67=6.5862; iris_rx=0.1; iris_screw_l=0.5; iris_screw_r=1.5; iris_shift00=0; iris_shift112=0; iris_shift211=3.5; iris_shift310=0; iris_shift49=0; iris_shift58=3.5; iris_shift67=3.5; iris_tx=4.5; iris_tz=4.5; iris_w00=0; iris_w112=0; iris_w211=4; iris_w310=3.9616; iris_w49=4.6196; iris_w58=4; iris_w67=4; mesh_cavity=5; mesh_iris=7; mesh_screw=7; order=12; reset_all=0; sigma=4.8e+07}
! Header version: 2018
! Port assignment regex: !\s*Touchstone port\s*([0-9]+)\s*=\s*(CST MWS port|CST DS port)\s*([0-9]+|Zmin|Zmax)\s*\(\"(.*)\"\)(\s*mode\s*([0-9]+))?.*
! Touchstone port assignment:
! Touchstone port 1 = CST MWS port 1 ("")
! Touchstone port 2 = CST MWS port 2 ("")
# GHz S RI R 50
12.66                0.451618656      0.86631635   0.000240520209 -0.000146803145   0.000240520209 -0.000146803145      0.449598811     0.867527625
12.660028            0.452072882     0.866059697   0.000240813629 -0.000147165333   0.000240813629 -0.000147165334      0.450050737     0.867273718
12.660056            0.452527326     0.865802591   0.000241107359 -0.000147528432   0.000241107359 -0.000147528433      0.450502908     0.867019351
12.660084            0.452981989      0.86554503     0.0002414014 -0.000147892443     0.0002414014 -0.000147892444      0.450955313     0.866764526
12.660112            0.453436871     0.865287014   0.000241695754 -0.000148257368   0.000241695754 -0.000148257368      0.451407941     0.866509249
12.66014             0.453891974     0.865028541   0.000241990421 -0.000148623207   0.000241990421 -0.000148623207      0.451860782     0.866253524
12.660168            0.454347296      0.86476961   0.000242285403 -0.000148989964   0.000242285403 -0.000148989964      0.452313837      0.86599735
12.660196            0.454802838     0.864510221   0.000242580697  -0.00014935764   0.000242580697 -0.000149357641      0.452767112     0.865740722
12.660224            0.455258599     0.864250374   0.000242876304  -0.00014972624   0.000242876304  -0.00014972624      0.453220607     0.865483642
12.660252             0.45571458     0.863990067   0.000243172223 -0.000150095764   0.000243172223 -0.000150095765      0.453674322     0.865226106
12.66028             0.456170781       0.8637293   0.000243468455 -0.000150466217   0.000243468455 -0.000150466217      0.454128256     0.864968115
12.660308              0.4566272     0.863468071      0.000243765 -0.000150837599      0.000243765 -0.000150837599      0.454582411     0.864709668
12.660336            0.457083839      0.86320638   0.000244061856 -0.000151209913   0.000244061856 -0.000151209913      0.455036786     0.864450764
12.660364            0.457540698     0.862944227   0.000244359025 -0.000151583162   0.000244359025 -0.000151583162      0.455491381     0.864191402
12.660392            0.457997776      0.86268161   0.000244656507 -0.000151957349   0.000244656507 -0.000151957349      0.455946196     0.863931582
12.66042             0.458455073     0.862418529     0.0002449543 -0.000152332475     0.0002449543 -0.000152332475      0.456401231     0.863671302
12.660448            0.458912589     0.862154982   0.000245252405 -0.000152708544   0.000245252405 -0.000152708544      0.456856485     0.863410562
12.660476            0.459370325     0.861890969   0.000245550821 -0.000153085557   0.000245550821 -0.000153085557       0.45731196     0.863149361
12.660504            0.459828279      0.86162649    0.00024584955 -0.000153463517    0.00024584955 -0.000153463517      0.457767654     0.862887699
12.660532            0.460286453     0.861361543    0.00024614859 -0.000153842427    0.00024614859 -0.000153842427      0.458223568     0.862625574
12.66056             0.460744846     0.861096128   0.000246447941 -0.000154222289   0.000246447941 -0.000154222289      0.458679702     0.862362985
12.660588            0.461203458     0.860830244   0.000246747604 -0.000154603105   0.000246747603 -0.000154603105      0.459136056     0.862099933
12.660616             0.46166229     0.860563889   0.000247047577 -0.000154984879   0.000247047577 -0.000154984879       0.45959263     0.861836416
12.660644             0.46212134     0.860297064   0.000247347862 -0.000155367612   0.000247347862 -0.000155367612      0.460049423     0.861572433
12.660672            0.462580609     0.860029767   0.000247648457 -0.000155751308   0.000247648457 -0.000155751308      0.460506435     0.861307983
12.6607              0.463040097     0.859761998   0.000247949364 -0.000156135968   0.000247949364 -0.000156135968      0.460963668     0.861043066
12.660728            0.463499804     0.859493756   0.000248250581 -0.000156521595   0.000248250581 -0.000156521595       0.46142112     0.860777681
12.660756            0.463959729     0.859225039   0.000248552108 -0.000156908192   0.000248552108 -0.000156908192      0.461878791     0.860511828
12.660784            0.464419874     0.858955848   0.000248853945 -0.000157295761   0.000248853945 -0.000157295761      0.462336683     0.860245504
12.660812            0.464880237     0.858686181   0.000249156093 -0.000157684305   0.000249156093 -0.000157684305      0.462794793      0.85997871
12.66084             0.465340819     0.858416037   0.000249458551 -0.000158073826   0.000249458551 -0.000158073826      0.463253123     0.859711444
12.660868             0.46580162     0.858145416   0.000249761318 -0.000158464328   0.000249761318 -0.000158464328      0.463711673     0.859443707
12.660896            0.466262639     0.857874318   0.000250064395 -0.000158855811   0.000250064395 -0.000158855811      0.464170442     0.859175496
12.660924            0.466723877      0.85760274   0.000250367782  -0.00015924828   0.000250367782  -0.00015924828       0.46462943     0.858906812
12.660952            0.467185333     0.857330682   0.000250671478 -0.000159641736   0.000250671478 -0.000159641737      0.465088637     0.858637652
12.66098             0.467647008     0.857058144   0.000250975483 -0.000160036183   0.000250975483 -0.000160036183      0.465548064     0.858368018
12.661008            0.468108902     0.856785124   0.000251279797 -0.000160431622   0.000251279797 -0.000160431623       0.46600771     0.858097907
12.661036            0.468571013     0.856511622   0.000251584419 -0.000160828057   0.000251584419 -0.000160828057      0.466467575     0.857827319
12.661064            0.469033343     0.856237637   0.000251889351  -0.00016122549   0.000251889351  -0.00016122549      0.466927659     0.857556254
12.661092            0.469495891     0.855963168    0.00025219459 -0.000161623924    0.00025219459 -0.000161623924      0.467387963     0.857284709
12.66112             0.469958658     0.855688214   0.000252500138 -0.000162023361   0.000252500138 -0.000162023361      0.467848485     0.857012685
12.661148            0.470421643     0.855412774   0.000252805994 -0.000162423803   0.000252805994 -0.000162423803      0.468309227     0.856740181
12.661176            0.470884845     0.855136849   0.000253112158 -0.000162825254   0.000253112158 -0.000162825255      0.468770187     0.856467195
12.661204            0.471348266     0.854860436   0.000253418629 -0.000163227717   0.000253418629 -0.000163227717      0.469231366     0.856193728
12.661232            0.471811905     0.854583534   0.000253725408 -0.000163631193   0.000253725408 -0.000163631193      0.469692765     0.855919777
12.66126             0.472275762     0.854306144   0.000254032494 -0.000164035686   0.000254032494 -0.000164035686      0.470154382     0.855645343
12.661288            0.472739836     0.854028264   0.000254339887 -0.000164441198   0.000254339887 -0.000164441198      0.470616217     0.855370424
12.661316            0.473204129     0.853749894   0.000254647587 -0.000164847731   0.000254647587 -0.000164847732      0.471078272      0.85509502
12.661344            0.473668639     0.853471031   0.000254955593  -0.00016525529   0.000254955593  -0.00016525529      0.471540545     0.854819129
12.661372            0.474133367     0.853191677   0.000255263905 -0.000165663875   0.000255263905 -0.000165663875      0.472003037     0.854542752
12.6614              0.474598313     0.852911829   0.000255572524  -0.00016607349   0.000255572524  -0.00016607349      0.472465747     0.854265887
12.661428            0.475063476     0.852631488   0.000255881448 -0.000166484138   0.000255881448 -0.000166484138      0.472928676     0.853988532
12.661456            0.475528857     0.852350651   0.000256190679 -0.000166895821   0.000256190679 -0.000166895822      0.473391823     0.853710689
12.661484            0.475994455     0.852069319   0.000256500214 -0.000167308543   0.000256500214 -0.000167308543      0.473855189     0.853432354
12.661512             0.47646027      0.85178749   0.000256810055 -0.000167722304   0.000256810055 -0.000167722305      0.474318773     0.853153529
12.66154             0.476926303     0.851505164     0.0002571202  -0.00016813711     0.0002571202  -0.00016813711      0.474782575     0.852874211
12.661568            0.477392553     0.851222339   0.000257430651 -0.000168552961   0.000257430651 -0.000168552961      0.475246595     0.852594401
12.661596            0.477859021     0.850939015   0.000257741405 -0.000168969862   0.000257741405 -0.000168969862      0.475710834     0.852314096
12.661624            0.478325705     0.850655191   0.000258052464 -0.000169387814   0.000258052464 -0.000169387814      0.476175291     0.852033297
12.661652            0.478792606     0.850370866   0.000258363827  -0.00016980682   0.000258363826  -0.00016980682      0.476639965     0.851752002
12.66168             0.479259725      0.85008604   0.000258675493 -0.000170226884   0.000258675493 -0.000170226884      0.477104858     0.851470211
12.661708             0.47972706     0.849800711   0.000258987462 -0.000170648008   0.000258987462 -0.000170648008      0.477569969     0.851187923
12.661736            0.480194612     0.849514878   0.000259299735 -0.000171070194   0.000259299735 -0.000171070194      0.478035297     0.850905136
12.661764            0.480662381     0.849228541    0.00025961231 -0.000171493446    0.00025961231 -0.000171493446      0.478500844      0.85062185
12.661792            0.481130367     0.848941699   0.000259925188 -0.000171917767   0.000259925188 -0.000171917767      0.478966608     0.850338065
12.66182             0.481598569      0.84865435   0.000260238369 -0.000172343158   0.000260238369 -0.000172343158      0.479432589     0.850053779
12.661848            0.482066988     0.848366495   0.000260551851 -0.000172769624   0.000260551851 -0.000172769624      0.479898788     0.849768991
12.661876            0.482535623     0.848078131   0.000260865634 -0.000173197166   0.000260865634 -0.000173197166      0.480365205       0.8494837
12.661904            0.483004475     0.847789259   0.000261179719 -0.000173625788   0.000261179719 -0.000173625788      0.480831839     0.849197907
12.661932            0.483473543     0.847499878   0.000261494106 -0.000174055492   0.000261494106 -0.000174055492      0.481298691     0.848911609
12.66196             0.483942827     0.847209986   0.000261808792 -0.000174486281   0.000261808792 -0.000174486281       0.48176576     0.848624806
12.661988            0.484412327     0.846919582    0.00026212378 -0.000174918159    0.00026212378 -0.000174918159      0.482233046     0.848337497
12.662016            0.484882043     0.846628666   0.000262439067 -0.000175351127   0.000262439067 -0.000175351127      0.482700549     0.848049681
12.662044            0.485351976     0.846337237   0.000262754654 -0.000175785189   0.000262754654  -0.00017578519       0.48316827     0.847761357
12.662072            0.485822124     0.846045294   0.000263070541 -0.000176220348   0.000263070541 -0.000176220348      0.483636207     0.847472525
12.6621              0.486292488     0.845752836   0.000263386727 -0.000176656607   0.000263386727 -0.000176656607      0.484104361     0.847183184
12.662128            0.486763068     0.845459862   0.000263703211 -0.000177093968   0.000263703211 -0.000177093968      0.484572732     0.846893331
12.662156            0.487233863     0.845166372   0.000264019995 -0.000177532434   0.000264019994 -0.000177532434       0.48504132     0.846602968
12.662184            0.487704874     0.844872363   0.000264337076 -0.000177972008   0.000264337076 -0.000177972009      0.485510125     0.846312093
12.662212              0.4881761     0.844577837   0.000264654455 -0.000178412694   0.000264654455 -0.000178412694      0.485979146     0.846020704
12.66224             0.488647542      0.84428279   0.000264972131 -0.000178854494   0.000264972131 -0.000178854494      0.486448384     0.845728802
12.662268            0.489119198     0.843987224   0.000265290105  -0.00017929741   0.000265290105  -0.00017929741      0.486917838     0.845436384
12.662296             0.48959107     0.843691136   0.000265608375 -0.000179741447   0.000265608375 -0.000179741447      0.487387509     0.845143451
12.662324            0.490063158     0.843394527   0.000265926942 -0.000180186606   0.000265926942 -0.000180186606      0.487857396     0.844850002
12.662352             0.49053546     0.843097394   0.000266245804 -0.000180632891   0.000266245804 -0.000180632891      0.488327499     0.844556035
12.66238             0.491007977     0.842799737   0.000266564963 -0.000181080305   0.000266564963 -0.000181080305      0.488797818     0.844261549
12.662408            0.491480708     0.842501555   0.000266884416  -0.00018152885   0.000266884416 -0.000181528851      0.489268353     0.843966544
12.662436            0.491953655     0.842202848   0.000267204165 -0.000181978531   0.000267204164 -0.000181978531      0.489739104     0.843671019
12.662464            0.492426816     0.841903614   0.000267524207 -0.000182429348   0.000267524207 -0.000182429348      0.490210071     0.843374973
12.662492            0.492900192     0.841603853   0.000267844544 -0.000182881307   0.000267844544 -0.000182881307      0.490681254     0.843078404
12.66252             0.493373781     0.841303562   0.000268165175 -0.000183334408   0.000268165175 -0.000183334409      0.491152653     0.842781313
12.662548            0.493847586     0.841002743   0.000268486099 -0.000183788657   0.000268486099 -0.000183788657      0.491624267     0.842483698
12.662576            0.494321604     0.840701393   0.000268807316 -0.000184244055   0.000268807316 -0.000184244055      0.492096096     0.842185558
12.662604            0.494795837     0.840399512   0.000269128825 -0.000184700606   0.000269128825 -0.000184700606      0.492568141     0.841886893
12.662632            0.495270283     0.840097099   0.000269450627 -0.000185158312   0.000269450627 -0.000185158312      0.493040401     0.841587701
12.66266             0.495744943     0.839794153    0.00026977272 -0.000185617177    0.00026977272 -0.000185617177      0.493512877     0.841287981
12.662688            0.496219817     0.839490672   0.000270095105 -0.000186077204   0.000270095104 -0.000186077204      0.493985567     0.840987733
12.662716            0.496694905     0.839186657    0.00027041778 -0.000186538395    0.00027041778 -0.000186538395      0.494458472     0.840686956
12.662744            0.497170206     0.838882106   0.000270740745 -0.000187000754   0.000270740745 -0.000187000754      0.494931593     0.840385648
12.662772            0.497645721     0.838577018   0.000271064001 -0.000187464284   0.000271064001 -0.000187464284      0.495404928     0.840083809
12.6628              0.498121449     0.838271393   0.000271387546 -0.000187928988   0.000271387546 -0.000187928988      0.495878478     0.839781438
12.662828             0.49859739     0.837965228    0.00027171138 -0.000188394869    0.00027171138 -0.000188394869      0.496352242     0.839478534
12.662856            0.499073545     0.837658524   0.000272035503  -0.00018886193   0.000272035503  -0.00018886193      0.496826221     0.839175096
12.662884            0.499549912      0.83735128   0.000272359914 -0.000189330174   0.000272359914 -0.000189330175      0.497300414     0.838871124
12.662912            0.500026492     0.837043494   0.000272684612 -0.000189799605   0.000272684612 -0.000189799605      0.497774822     0.838566615
12.66294             0.500503285     0.836735166   0.000273009598 -0.000190270225   0.000273009598 -0.000190270225      0.498249444     0.838261569
12.662968             0.50098029     0.836426294    0.00027333487 -0.000190742037    0.00027333487 -0.000190742037       0.49872428     0.837955986
12.662996            0.501457508     0.836116878   0.000273660429 -0.000191215045   0.000273660429 -0.000191215045      0.499199329     0.837649864
12.663024            0.501934939     0.835806917   0.000273986274 -0.000191689252   0.000273986274 -0.000191689252      0.499674593     0.837343203
12.663052            0.502412581     0.835496409   0.000274312404  -0.00019216466   0.000274312404  -0.00019216466       0.50015007     0.837036001
12.66308             0.502890436     0.835185355   0.000274638818 -0.000192641274   0.000274638818 -0.000192641274      0.500625761     0.836728258
12.663108            0.503368503     0.834873752   0.000274965517 -0.000193119096   0.000274965517 -0.000193119096      0.501101665     0.836419972
12.663136            0.503846781       0.8345616     0.0002752925 -0.000193598129     0.0002752925 -0.000193598129      0.501577783     0.836111143
12.663164            0.504325272     0.834248899   0.000275619766 -0.000194078377   0.000275619766 -0.000194078377      0.502054114     0.835801769
12.663192            0.504803974     0.833935646   0.000275947315 -0.000194559842   0.000275947315 -0.000194559842      0.502530659     0.835491851
12.66322             0.505282887     0.833621841   0.000276275146 -0.000195042528   0.000276275146 -0.000195042529      0.503007416     0.835181386
12.663248            0.505762012     0.833307484   0.000276603259 -0.000195526439   0.000276603259 -0.000195526439      0.503484386     0.834870374
12.663276            0.506241348     0.832992573   0.000276931653 -0.000196011577   0.000276931653 -0.000196011577      0.503961569     0.834558814
12.663304            0.506720895     0.832677107   0.000277260328 -0.000196497945   0.000277260328 -0.000196497945      0.504438964     0.834246705
12.663332            0.507200654     0.832361085   0.000277589283 -0.000196985547   0.000277589283 -0.000196985547      0.504916573     0.833934045
12.66336             0.507680622     0.832044506   0.000277918517 -0.000197474386   0.000277918517 -0.000197474386      0.505394393     0.833620835
12.663388            0.508160802      0.83172737   0.000278248031 -0.000197964465   0.000278248031 -0.000197964465      0.505872426     0.833307073
12.663416            0.508641192     0.831409675   0.000278577823 -0.000198455788   0.000278577823 -0.000198455788      0.506350671     0.832992758
12.663444            0.509121793      0.83109142   0.000278907893 -0.000198948357   0.000278907893 -0.000198948358      0.506829128     0.832677889
12.663472            0.509602604     0.830772605    0.00027923824 -0.000199442177    0.00027923824 -0.000199442177      0.507307797     0.832362465
12.6635              0.510083625     0.830453228   0.000279568864  -0.00019993725   0.000279568864  -0.00019993725      0.507786678     0.832046486
12.663528            0.510564856     0.830133289   0.000279899764 -0.000200433579   0.000279899764 -0.000200433579       0.50826577     0.831729949
12.663556            0.511046297     0.829812786    0.00028023094 -0.000200931168    0.00028023094 -0.000200931168      0.508745074     0.831412855
12.663584            0.511527947     0.829491718   0.000280562391  -0.00020143002   0.000280562391  -0.00020143002      0.509224589     0.831095202
12.663612            0.512009807     0.829170085   0.000280894116 -0.000201930139   0.000280894116 -0.000201930139      0.509704315      0.83077699
12.66364             0.512491877     0.828847886   0.000281226115 -0.000202431527   0.000281226115 -0.000202431527      0.510184253     0.830458216
12.663668            0.512974156     0.828525119   0.000281558387 -0.000202934188   0.000281558387 -0.000202934188      0.510664401     0.830138881
12.663696            0.513456643     0.828201783   0.000281890932 -0.000203438126   0.000281890932 -0.000203438126      0.511144761     0.829818984
12.663724             0.51393934     0.827877878   0.000282223749 -0.000203943344   0.000282223749 -0.000203943344      0.511625331     0.829498523
12.663752            0.514422246     0.827553403   0.000282556837 -0.000204449844   0.000282556837 -0.000204449844      0.512106111     0.829177497
12.66378              0.51490536     0.827228356   0.000282890196 -0.000204957631   0.000282890196 -0.000204957632      0.512587102     0.828855905
12.663808            0.515388683     0.826902737   0.000283223825 -0.000205466708   0.000283223825 -0.000205466708      0.513068303     0.828533747
12.663836            0.515872214     0.826576544   0.000283557723 -0.000205977078   0.000283557723 -0.000205977079      0.513549715     0.828211022
12.663864            0.516355953     0.826249777    0.00028389189 -0.000206488745    0.00028389189 -0.000206488745      0.514031336     0.827887728
12.663892              0.5168399     0.825922434   0.000284226326 -0.000207001712   0.000284226326 -0.000207001712      0.514513167     0.827563864
12.66392             0.517324055     0.825594515   0.000284561028 -0.000207515982   0.000284561028 -0.000207515982      0.514995208      0.82723943
12.663948            0.517808418     0.825266018   0.000284895998 -0.000208031559   0.000284895998 -0.000208031559      0.515477458     0.826914424
12.663976            0.518292988     0.824936943   0.000285231233 -0.000208548446   0.000285231233 -0.000208548446      0.515959917     0.826588845
12.664004            0.518777766     0.824607289   0.000285566734 -0.000209066646   0.000285566734 -0.000209066646      0.516442586     0.826262693
12.664032             0.51926275     0.824277054     0.0002859025 -0.000209586164     0.0002859025 -0.000209586164      0.516925464     0.825935967
12.66406             0.519747942     0.823946237    0.00028623853 -0.000210107002    0.00028623853 -0.000210107002      0.517408551     0.825608664
12.664088            0.520233341     0.823614838   0.000286574823 -0.000210629164   0.000286574823 -0.000210629164      0.517891846     0.825280786
12.664116            0.520718946     0.823282856   0.000286911379 -0.000211152654   0.000286911379 -0.000211152654       0.51837535     0.824952329
12.664144            0.521204758     0.822950289   0.000287248197 -0.000211677474   0.000287248197 -0.000211677474      0.518859063     0.824623294
12.664172            0.521690776     0.822617136   0.000287585276 -0.000212203629   0.000287585276 -0.000212203629      0.519342983      0.82429368
12.6642                 0.522177     0.822283397   0.000287922615 -0.000212731121   0.000287922615 -0.000212731121      0.519827112     0.823963484
12.664228            0.522663431      0.82194907   0.000288260214 -0.000213259955   0.000288260214 -0.000213259955      0.520311449     0.823632707
12.664256            0.523150067     0.821614155   0.000288598072 -0.000213790134   0.000288598072 -0.000213790134      0.520795993     0.823301348
12.664284            0.523636909     0.821278649   0.000288936189 -0.000214321661   0.000288936189 -0.000214321661      0.521280745     0.822969405
12.664312            0.524123956     0.820942554   0.000289274563  -0.00021485454   0.000289274563 -0.000214854541      0.521765705     0.822636877
12.66434             0.524611208     0.820605866   0.000289613193 -0.000215388775   0.000289613193 -0.000215388775      0.522250872     0.822303763
12.664368            0.525098666     0.820268586    0.00028995208 -0.000215924368    0.00028995208 -0.000215924369      0.522736245     0.821970062
12.664396            0.525586328     0.819930712   0.000290291222 -0.000216461324   0.000290291222 -0.000216461325      0.523221826     0.821635774
12.664424            0.526074195     0.819592243   0.000290630618 -0.000216999646   0.000290630618 -0.000216999647      0.523707614     0.821300897
12.664452            0.526562267     0.819253178   0.000290970268 -0.000217539338   0.000290970268 -0.000217539338      0.524193608      0.82096543
12.66448             0.527050543     0.818913516   0.000291310171 -0.000218080403   0.000291310171 -0.000218080403      0.524679808     0.820629372
12.664508            0.527539023     0.818573257   0.000291650326 -0.000218622845   0.000291650326 -0.000218622845      0.525166215     0.820292722
12.664536            0.528027707     0.818232398   0.000291990732 -0.000219166667   0.000291990732 -0.000219166667      0.525652827      0.81995548
12.664564            0.528516595     0.817890939   0.000292331388 -0.000219711873   0.000292331388 -0.000219711873      0.526139646     0.819617643
12.664592            0.529005686      0.81754888   0.000292672295 -0.000220258467   0.000292672295 -0.000220258467       0.52662667     0.819279211
12.66462             0.529494981     0.817206218   0.000293013449 -0.000220806452   0.000293013449 -0.000220806452      0.527113899     0.818940183
12.664648            0.529984479     0.816862953   0.000293354852 -0.000221355832   0.000293354852 -0.000221355832      0.527601334     0.818600558
12.664676             0.53047418     0.816519083   0.000293696502  -0.00022190661   0.000293696502  -0.00022190661      0.528088974     0.818260335
12.664704            0.530964084     0.816174609   0.000294038399 -0.000222458791   0.000294038399 -0.000222458791      0.528576819     0.817919512
12.664732             0.53145419     0.815829528    0.00029438054 -0.000223012377    0.00029438054 -0.000223012377      0.529064869     0.817578089
12.66476             0.531944499     0.815483839   0.000294722926 -0.000223567373   0.000294722926 -0.000223567373      0.529553123     0.817236065
12.664788            0.532435009     0.815137542   0.000295065556 -0.000224123782   0.000295065556 -0.000224123782      0.530041582     0.816893439
12.664816            0.532925722     0.814790636   0.000295408429 -0.000224681608   0.000295408429 -0.000224681608      0.530530245     0.816550209
12.664844            0.533416636     0.814443119   0.000295751543 -0.000225240855   0.000295751543 -0.000225240855      0.531019111     0.816206374
12.664872            0.533907752      0.81409499   0.000296094899 -0.000225801526   0.000296094899 -0.000225801526      0.531508182     0.815861934
12.6649               0.53439907     0.813746249   0.000296438495 -0.000226363624   0.000296438495 -0.000226363624      0.531997456     0.815516887
12.664928            0.534890588     0.813396893   0.000296782329 -0.000226927155   0.000296782329 -0.000226927155      0.532486933     0.815171233
12.664956            0.535382307     0.813046923   0.000297126403 -0.000227492121   0.000297126403 -0.000227492121      0.532976614      0.81482497
12.664984            0.535874227     0.812696337   0.000297470713 -0.000228058526   0.000297470713 -0.000228058526      0.533466497     0.814478097
12.665012            0.536366348     0.812345134    0.00029781526 -0.000228626374    0.00029781526 -0.000228626374      0.533956583     0.814130613
12.66504             0.536858668     0.811993313   0.000298160042 -0.000229195669   0.000298160042 -0.000229195669      0.534446872     0.813782517
12.665068            0.537351189     0.811640872   0.000298505059 -0.000229766414   0.000298505059 -0.000229766414      0.534937363     0.813433808
12.665096             0.53784391     0.811287811    0.00029885031 -0.000230338613    0.00029885031 -0.000230338613      0.535428057     0.813084485
12.665124             0.53833683     0.810934129   0.000299195793 -0.000230912271   0.000299195793 -0.000230912271      0.535918952     0.812734546
12.665152            0.538829949     0.810579824   0.000299541508  -0.00023148739   0.000299541508  -0.00023148739      0.536410049     0.812383992
12.66518             0.539323267     0.810224896   0.000299887454 -0.000232063975   0.000299887454 -0.000232063975      0.536901347      0.81203282
12.665208            0.539816785     0.809869343   0.000300233629 -0.000232642029   0.000300233629 -0.000232642029      0.537392847     0.811681029
12.665236            0.540310501     0.809513165   0.000300580033 -0.000233221557   0.000300580033 -0.000233221557      0.537884547     0.811328619
12.665264            0.540804415     0.809156359   0.000300926665 -0.000233802562   0.000300926665 -0.000233802562      0.538376449     0.810975588
12.665292            0.541298528     0.808798926   0.000301273523 -0.000234385047   0.000301273523 -0.000234385048      0.538868551     0.810621936
12.66532             0.541792839     0.808440863   0.000301620607 -0.000234969018   0.000301620607 -0.000234969018      0.539360854     0.810267661
12.665348            0.542287347     0.808082171   0.000301967916 -0.000235554477   0.000301967916 -0.000235554477      0.539853357     0.809912761
12.665376            0.542782053     0.807722847   0.000302315449 -0.000236141429   0.000302315448 -0.000236141429      0.540346059     0.809557237
12.665404            0.543276956     0.807362891   0.000302663204 -0.000236729877   0.000302663203 -0.000236729878      0.540838962     0.809201087