! TOUCHSTONE file generated by CST MICROWAVE STUDIO
! Date and time: Wed Jul 31 11:40:11 2024
! Project name: WaveGuide_BPF-Ver4.1_U-shape_Ku_T3_C4_CWA_2.cst
! Parameters = {cavity_h=16; cavity_l0=10; cavity_l1=15.1631; cavity_l2=16.8318; cavity_l3=17.1407; cavity_l4=17.2491; cavity_l5=17.1265; cavity_l6=17.6108; cavity_r=2.5; cavity_screw_l=0.5; cavity_screw_r=1.5; cavity_w=8; iris_h00=0; iris_h01=8.8018; iris_h112=0; iris_h12=5.5948; iris_h211=3.6544; iris_h23=5.1934; iris_h310=3.9631; iris_h34=5.0811; iris_h45=4.9348; iris_h49=4.6268; iris_h56=4.8; iris_h58=4.4318; iris_h67=6.5778; iris_rx=0.1; iris_screw_l=0.5; iris_screw_r=1.5; iris_shift00=0; iris_shift112=0; iris_shift211=3.5; iris_shift310=0; iris_shift49=0; iris_shift58=3.5; iris_shift67=3.5; iris_tx=4.5; iris_tz=4.5; iris_w00=0; iris_w112=0; iris_w211=4; iris_w310=3.9631; iris_w49=4.6268; iris_w58=4; iris_w67=4; mesh_cavity=5; mesh_iris=7; mesh_screw=7; order=12; reset_all=0; sigma=4.8e+07}
! Header version: 2018
! Port assignment regex: !\s*Touchstone port\s*([0-9]+)\s*=\s*(CST MWS port|CST DS port)\s*([0-9]+|Zmin|Zmax)\s*\(\"(.*)\"\)(\s*mode\s*([0-9]+))?.*
! Touchstone port assignment:
! Touchstone port 1 = CST MWS port 1 ("")
! Touchstone port 2 = CST MWS port 2 ("")
# GHz S RI R 50
12.66                 0.15209838     0.974260981   0.000142026151  -3.1675957e-05   0.000142026151 -3.16759568e-05      0.157832177     0.973351453
12.660028            0.152396272     0.974206568   0.000142213719 -3.17664493e-05   0.000142213719 -3.17664491e-05      0.158130663     0.973295108
12.660056            0.152694375     0.974152018    0.00014240157 -3.18571823e-05    0.00014240157 -3.18571821e-05      0.158429432     0.973238614
12.660084             0.15299267     0.974097335   0.000142589706  -3.1948152e-05   0.000142589706 -3.19481518e-05      0.158728434     0.973181977
12.660112            0.153291136     0.974042521    0.00014277813 -3.20393542e-05    0.00014277813  -3.2039354e-05      0.159027618     0.973125206
12.66014             0.153589756     0.973987579   0.000142966843 -3.21307847e-05   0.000142966843 -3.21307845e-05      0.159326936     0.973068308
12.660168             0.15388853     0.973932509   0.000143155848 -3.22224441e-05   0.000143155848 -3.22224438e-05      0.159626388     0.973011283
12.660196             0.15418747     0.973877308   0.000143345141 -3.23143361e-05   0.000143345141 -3.23143359e-05      0.159926006     0.972954126
12.660224            0.154486576     0.973821976   0.000143534725 -3.24064615e-05   0.000143534725 -3.24064612e-05      0.160225792     0.972896836
12.660252            0.154785849     0.973766514     0.0001437246 -3.24988207e-05     0.0001437246 -3.24988205e-05      0.160525744     0.972839413
12.66028             0.155085289      0.97371092   0.000143914766 -3.25914145e-05   0.000143914766 -3.25914143e-05      0.160825864     0.972781857
12.660308            0.155384896     0.973655195   0.000144105223 -3.26842434e-05   0.000144105223 -3.26842432e-05      0.161126152     0.972724168
12.660336            0.155684669     0.973599338   0.000144295972 -3.27773082e-05   0.000144295972 -3.27773079e-05      0.161426607     0.972666345
12.660364            0.155984611      0.97354335   0.000144487014 -3.28706093e-05   0.000144487014  -3.2870609e-05       0.16172723     0.972608389
12.660392            0.156284719     0.973487229   0.000144678349 -3.29641474e-05   0.000144678349 -3.29641472e-05      0.162028021     0.972550298
12.66042             0.156584996     0.973430976   0.000144869977 -3.30579232e-05   0.000144869977 -3.30579229e-05      0.162328981     0.972492074
12.660448             0.15688544     0.973374591     0.0001450619 -3.31519372e-05     0.0001450619  -3.3151937e-05      0.162630108     0.972433715
12.660476            0.157186052     0.973318073   0.000145254116 -3.32461902e-05   0.000145254116 -3.32461899e-05      0.162931404     0.972375221
12.660504            0.157486832     0.973261422   0.000145446628 -3.33406826e-05   0.000145446628 -3.33406824e-05      0.163232868     0.972316592
12.660532             0.15778778     0.973204638   0.000145639435 -3.34354152e-05   0.000145639435  -3.3435415e-05      0.163534502     0.972257829
12.66056             0.158088897      0.97314772   0.000145832538 -3.35303887e-05   0.000145832538 -3.35303884e-05      0.163836304      0.97219893
12.660588            0.158390182     0.973090669   0.000146025937 -3.36256035e-05   0.000146025937 -3.36256033e-05      0.164138275     0.972139895
12.660616            0.158691636     0.973033485   0.000146219633 -3.37210604e-05   0.000146219633 -3.37210602e-05      0.164440415     0.972080725
12.660644            0.158993258     0.972976166   0.000146413626   -3.381676e-05   0.000146413626 -3.38167598e-05      0.164742725     0.972021419
12.660672             0.15929505     0.972918713   0.000146607918  -3.3912703e-05   0.000146607918 -3.39127028e-05      0.165045204     0.971961977
12.6607              0.159597011     0.972861125   0.000146802507 -3.40088899e-05   0.000146802507 -3.40088897e-05      0.165347853     0.971902398
12.660728            0.159899141     0.972803403   0.000146997395 -3.41053215e-05   0.000146997395 -3.41053213e-05      0.165650672     0.971842682
12.660756             0.16020144     0.972745546   0.000147192583 -3.42019984e-05   0.000147192583 -3.42019982e-05      0.165953661      0.97178283
12.660784             0.16050391     0.972687554    0.00014738807 -3.42989212e-05    0.00014738807 -3.42989209e-05       0.16625682      0.97172284
12.660812            0.160806549     0.972629426   0.000147583857 -3.43960905e-05   0.000147583857 -3.43960903e-05      0.166560149     0.971662713
12.66084             0.161109357     0.972571163   0.000147779946 -3.44935071e-05   0.000147779946 -3.44935069e-05      0.166863649     0.971602449
12.660868            0.161412336     0.972512764   0.000147976335 -3.45911716e-05   0.000147976335 -3.45911713e-05      0.167167319     0.971542047
12.660896            0.161715486     0.972454229   0.000148173026 -3.46890846e-05   0.000148173026 -3.46890843e-05       0.16747116     0.971481506
12.660924            0.162018805     0.972395557   0.000148370019 -3.47872468e-05   0.000148370019 -3.47872465e-05      0.167775172     0.971420828
12.660952            0.162322295     0.972336749   0.000148567315 -3.48856588e-05   0.000148567315 -3.48856586e-05      0.168079355      0.97136001
12.66098             0.162625956     0.972277805   0.000148764914 -3.49843214e-05   0.000148764914 -3.49843211e-05       0.16838371     0.971299055
12.661008            0.162929788     0.972218723   0.000148962817 -3.50832351e-05   0.000148962817 -3.50832348e-05      0.168688235      0.97123796
12.661036            0.163233791     0.972159504   0.000149161024 -3.51824006e-05   0.000149161024 -3.51824004e-05      0.168992933     0.971176726
12.661064            0.163537965     0.972100148   0.000149359535 -3.52818187e-05   0.000149359535 -3.52818185e-05      0.169297802     0.971115352
12.661092             0.16384231     0.972040654   0.000149558352 -3.53814899e-05   0.000149558352 -3.53814897e-05      0.169602843     0.971053839
12.66112             0.164146827     0.971981023   0.000149757474  -3.5481415e-05   0.000149757474 -3.54814148e-05      0.169908056     0.970992186
12.661148            0.164451515     0.971921253   0.000149956902 -3.55815946e-05   0.000149956902 -3.55815944e-05      0.170213441     0.970930393
12.661176            0.164756376     0.971861345   0.000150156637 -3.56820294e-05   0.000150156637 -3.56820291e-05      0.170518999     0.970868459
12.661204            0.165061408     0.971801298   0.000150356679   -3.578272e-05   0.000150356679 -3.57827198e-05      0.170824729     0.970806385
12.661232            0.165366612     0.971741113   0.000150557029 -3.58836672e-05   0.000150557029 -3.58836669e-05      0.171130632      0.97074417
12.66126             0.165671989     0.971680788   0.000150757686 -3.59848716e-05   0.000150757686 -3.59848713e-05      0.171436707     0.970681814
12.661288            0.165977538     0.971620324   0.000150958653 -3.60863338e-05   0.000150958653 -3.60863336e-05      0.171742956     0.970619317
12.661316             0.16628326     0.971559721   0.000151159928 -3.61880547e-05   0.000151159928 -3.61880545e-05      0.172049378     0.970556678
12.661344            0.166589155     0.971498978   0.000151361513 -3.62900348e-05   0.000151361513 -3.62900346e-05      0.172355973     0.970493897
12.661372            0.166895222     0.971438095   0.000151563408 -3.63922749e-05   0.000151563408 -3.63922747e-05      0.172662741     0.970430974
12.6614              0.167201463     0.971377072   0.000151765614 -3.64947756e-05   0.000151765614 -3.64947754e-05      0.172969684     0.970367909
12.661428            0.167507877     0.971315908    0.00015196813 -3.65975377e-05    0.00015196813 -3.65975374e-05        0.1732768     0.970304702
12.661456            0.167814464     0.971254604   0.000152170959 -3.67005617e-05   0.000152170959 -3.67005615e-05       0.17358409     0.970241351
12.661484            0.168121225     0.971193158   0.000152374099 -3.68038485e-05   0.000152374099 -3.68038483e-05      0.173891554     0.970177858
12.661512            0.168428159     0.971131572   0.000152577552 -3.69073987e-05   0.000152577552 -3.69073985e-05      0.174199192     0.970114222
12.66154             0.168735268     0.971069844   0.000152781318  -3.7011213e-05   0.000152781318 -3.70112128e-05      0.174507005     0.970050442
12.661568             0.16904255     0.971007975   0.000152985398 -3.71152921e-05   0.000152985398 -3.71152919e-05      0.174814993     0.969986518
12.661596            0.169350007     0.970945963   0.000153189792 -3.72196368e-05   0.000153189792 -3.72196365e-05      0.175123155      0.96992245
12.661624            0.169657638      0.97088381     0.0001533945 -3.73242476e-05     0.0001533945 -3.73242474e-05      0.175431492     0.969858238
12.661652            0.169965444     0.970821514   0.000153599524 -3.74291254e-05   0.000153599524 -3.74291251e-05      0.175740005     0.969793882
12.66168             0.170273425     0.970759076   0.000153804863 -3.75342708e-05   0.000153804863 -3.75342705e-05      0.176048692     0.969729381
12.661708             0.17058158     0.970696495   0.000154010519 -3.76396845e-05   0.000154010519 -3.76396843e-05      0.176357555     0.969664735
12.661736             0.17088991      0.97063377   0.000154216491 -3.77453673e-05   0.000154216491 -3.77453671e-05      0.176666594     0.969599944
12.661764            0.171198416     0.970570903    0.00015442278 -3.78513198e-05    0.00015442278 -3.78513196e-05      0.176975808     0.969535007
12.661792            0.171507097     0.970507892   0.000154629387 -3.79575429e-05   0.000154629387 -3.79575426e-05      0.177285199     0.969469925
12.66182             0.171815953     0.970444737   0.000154836312 -3.80640371e-05   0.000154836312 -3.80640369e-05      0.177594765     0.969404697
12.661848            0.172124985     0.970381438   0.000155043555 -3.81708032e-05   0.000155043555  -3.8170803e-05      0.177904508     0.969339323
12.661876            0.172434193     0.970317995   0.000155251118  -3.8277842e-05   0.000155251118 -3.82778418e-05      0.178214427     0.969273802
12.661904            0.172743577     0.970254407   0.000155459001 -3.83851542e-05   0.000155459001 -3.83851539e-05      0.178524522     0.969208135
12.661932            0.173053137     0.970190674   0.000155667204 -3.84927404e-05   0.000155667204 -3.84927402e-05      0.178834795     0.969142321
12.66196             0.173362874     0.970126797   0.000155875727 -3.86006014e-05   0.000155875727 -3.86006012e-05      0.179145244     0.969076359
12.661988            0.173672787     0.970062774   0.000156084572  -3.8708738e-05   0.000156084572 -3.87087378e-05       0.17945587      0.96901025
12.662016            0.173982876     0.969998606   0.000156293739 -3.88171509e-05   0.000156293739 -3.88171507e-05      0.179766674     0.968943994
12.662044            0.174293143     0.969934292   0.000156503227 -3.89258408e-05   0.000156503227 -3.89258405e-05      0.180077655     0.968877589
12.662072            0.174603586     0.969869832   0.000156713039 -3.90348084e-05   0.000156713039 -3.90348082e-05      0.180388813     0.968811037
12.6621              0.174914207     0.969805225   0.000156923174 -3.91440545e-05   0.000156923174 -3.91440543e-05       0.18070015     0.968744336
12.662128            0.175225005     0.969740472   0.000157133633 -3.92535798e-05   0.000157133633 -3.92535796e-05      0.181011664     0.968677486
12.662156             0.17553598     0.969675573   0.000157344416 -3.93633851e-05   0.000157344416 -3.93633849e-05      0.181323356     0.968610488
12.662184            0.175847134     0.969610526   0.000157555524 -3.94734711e-05   0.000157555524 -3.94734709e-05      0.181635226      0.96854334
12.662212            0.176158465     0.969545332   0.000157766957 -3.95838386e-05   0.000157766957 -3.95838383e-05      0.181947275     0.968476043
12.66224             0.176469974     0.969479991   0.000157978716 -3.96944882e-05   0.000157978716  -3.9694488e-05      0.182259503     0.968408596
12.662268            0.176781661     0.969414502   0.000158190802 -3.98054208e-05   0.000158190802 -3.98054206e-05      0.182571909     0.968340999
12.662296            0.177093526     0.969348865   0.000158403215 -3.99166371e-05   0.000158403215 -3.99166369e-05      0.182884494     0.968273252
12.662324             0.17740557      0.96928308   0.000158615955 -4.00281379e-05   0.000158615955 -4.00281377e-05      0.183197258     0.968205355
12.662352            0.177717793     0.969217146   0.000158829023 -4.01399239e-05   0.000158829023 -4.01399237e-05      0.183510201     0.968137307
12.66238             0.178030194     0.969151063    0.00015904242 -4.02519959e-05    0.00015904242 -4.02519956e-05      0.183823324     0.968069108
12.662408            0.178342775     0.969084832   0.000159256145 -4.03643545e-05   0.000159256145 -4.03643543e-05      0.184136626     0.968000757
12.662436            0.178655534     0.969018451     0.0001594702 -4.04770007e-05     0.0001594702 -4.04770005e-05      0.184450108     0.967932256
12.662464            0.178968473      0.96895192   0.000159684586 -4.05899352e-05   0.000159684586 -4.05899349e-05       0.18476377     0.967863602
12.662492            0.179281592      0.96888524   0.000159899302 -4.07031586e-05   0.000159899302 -4.07031584e-05      0.185077613     0.967794797
12.66252              0.17959489      0.96881841   0.000160114349 -4.08166719e-05   0.000160114349 -4.08166717e-05      0.185391635     0.967725839
12.662548            0.179908368     0.968751429   0.000160329727 -4.09304757e-05   0.000160329727 -4.09304755e-05      0.185705838     0.967656729
12.662576            0.180222026     0.968684298   0.000160545438 -4.10445709e-05   0.000160545438 -4.10445707e-05      0.186020221     0.967587466
12.662604            0.180535864     0.968617016   0.000160761482 -4.11589582e-05   0.000160761482  -4.1158958e-05      0.186334785      0.96751805
12.662632            0.180849882     0.968549583   0.000160977859 -4.12736384e-05   0.000160977859 -4.12736382e-05       0.18664953      0.96744848
12.66266             0.181164081     0.968481999   0.000161194569 -4.13886123e-05   0.000161194569  -4.1388612e-05      0.186964456     0.967378757
12.662688            0.181478461     0.968414263   0.000161411614 -4.15038806e-05   0.000161411614 -4.15038803e-05      0.187279563      0.96730888
12.662716            0.181793021     0.968346376   0.000161628994 -4.16194441e-05   0.000161628994 -4.16194439e-05      0.187594852      0.96723885
12.662744            0.182107763     0.968278336   0.000161846709 -4.17353037e-05   0.000161846709 -4.17353034e-05      0.187910322     0.967168664
12.662772            0.182422686     0.968210144    0.00016206476 -4.18514601e-05    0.00016206476 -4.18514598e-05      0.188225974     0.967098325
12.6628               0.18273779     0.968141799   0.000162283148 -4.19679141e-05   0.000162283148 -4.19679138e-05      0.188541808      0.96702783
12.662828            0.183053075     0.968073301   0.000162501872 -4.20846664e-05   0.000162501872 -4.20846662e-05      0.188857825      0.96695718
12.662856            0.183368543     0.968004651   0.000162720934  -4.2201718e-05   0.000162720934 -4.22017178e-05      0.189174023     0.966886375
12.662884            0.183684192     0.967935846   0.000162940334 -4.23190696e-05   0.000162940334 -4.23190693e-05      0.189490404     0.966815414
12.662912            0.184000023     0.967866888   0.000163160073 -4.24367219e-05   0.000163160073 -4.24367217e-05      0.189806968     0.966744297
12.66294             0.184316037     0.967797777    0.00016338015 -4.25546758e-05    0.00016338015 -4.25546756e-05      0.190123714     0.966673023
12.662968            0.184632232     0.967728511   0.000163600568 -4.26729322e-05   0.000163600568 -4.26729319e-05      0.190440643     0.966601594
12.662996            0.184948611      0.96765909   0.000163821325 -4.27914917e-05   0.000163821325 -4.27914914e-05      0.190757756     0.966530007
12.663024            0.185265172     0.967589515   0.000164042423 -4.29103552e-05   0.000164042423  -4.2910355e-05      0.191075052     0.966458264
12.663052            0.185581916     0.967519785   0.000164263863 -4.30295235e-05   0.000164263863 -4.30295233e-05      0.191392531     0.966386363
12.66308             0.185898843     0.967449899   0.000164485644 -4.31489975e-05   0.000164485644 -4.31489973e-05      0.191710194     0.966314305
12.663108            0.186215953     0.967379858   0.000164707768 -4.32687779e-05   0.000164707768 -4.32687777e-05      0.192028041     0.966242088
12.663136            0.186533247     0.967309661   0.000164930234 -4.33888656e-05   0.000164930234 -4.33888653e-05      0.192346072     0.966169714
12.663164            0.186850725     0.967239308   0.000165153044 -4.35092613e-05   0.000165153044 -4.35092611e-05      0.192664287     0.966097181
12.663192            0.187168386     0.967168799   0.000165376198  -4.3629966e-05   0.000165376198 -4.36299657e-05      0.192982686      0.96602449
12.66322             0.187486231     0.967098133   0.000165599696 -4.37509803e-05   0.000165599696 -4.37509801e-05       0.19330127      0.96595164
12.663248             0.18780426      0.96702731   0.000165823539 -4.38723053e-05   0.000165823539  -4.3872305e-05      0.193620039      0.96587863
12.663276            0.188122473      0.96695633   0.000166047728 -4.39939416e-05   0.000166047728 -4.39939413e-05      0.193938992     0.965805461
12.663304            0.188440871     0.966885193   0.000166272263 -4.41158901e-05   0.000166272263 -4.41158898e-05      0.194258131     0.965732132
12.663332            0.188759454     0.966813898   0.000166497145 -4.42381516e-05   0.000166497145 -4.42381514e-05      0.194577455     0.965658643
12.66336             0.189078221     0.966742445   0.000166722374  -4.4360727e-05   0.000166722374 -4.43607268e-05      0.194896964     0.965584994
12.663388            0.189397174     0.966670834   0.000166947951 -4.44836172e-05    0.00016694795 -4.44836169e-05      0.195216659     0.965511184
12.663416            0.189716311     0.966599064   0.000167173875 -4.46068229e-05   0.000167173875 -4.46068226e-05      0.195536539     0.965437214
12.663444            0.190035634     0.966527135   0.000167400149  -4.4730345e-05   0.000167400149 -4.47303447e-05      0.195856606     0.965363082
12.663472            0.190355142     0.966455047   0.000167626772 -4.48541843e-05   0.000167626772 -4.48541841e-05      0.196176858     0.965288789
12.6635              0.190674836       0.9663828   0.000167853746 -4.49783417e-05   0.000167853746 -4.49783415e-05      0.196497297     0.965214333
12.663528            0.190994716     0.966310394   0.000168081069 -4.51028181e-05   0.000168081069 -4.51028178e-05      0.196817923     0.965139716
12.663556            0.191314782     0.966237827   0.000168308744 -4.52276142e-05   0.000168308744  -4.5227614e-05      0.197138735     0.965064937
12.663584            0.191635035     0.966165101    0.00016853677  -4.5352731e-05    0.00016853677 -4.53527308e-05      0.197459733     0.964989995
12.663612            0.191955473     0.966092213   0.000168765149 -4.54781693e-05   0.000168765149 -4.54781691e-05      0.197780919     0.964914891
12.66364             0.192276098     0.966019165    0.00016899388 -4.56039299e-05    0.00016899388 -4.56039297e-05      0.198102292     0.964839623
12.663668             0.19259691     0.965945956   0.000169222964 -4.57300138e-05   0.000169222964 -4.57300136e-05      0.198423853     0.964764192
12.663696            0.192917909     0.965872586   0.000169452402 -4.58564217e-05   0.000169452402 -4.58564215e-05        0.1987456     0.964688597
12.663724            0.193239095     0.965799054   0.000169682195 -4.59831546e-05   0.000169682195 -4.59831544e-05      0.199067536     0.964612838
12.663752            0.193560468     0.965725361   0.000169912342 -4.61102133e-05   0.000169912342 -4.61102131e-05       0.19938966     0.964536914
12.66378             0.193882029     0.965651505   0.000170142845 -4.62375987e-05   0.000170142845 -4.62375985e-05      0.199711971     0.964460827
12.663808            0.194203777     0.965577487   0.000170373704 -4.63653117e-05   0.000170373704 -4.63653114e-05      0.200034471     0.964384574
12.663836            0.194525713     0.965503306   0.000170604919  -4.6493353e-05   0.000170604919 -4.64933528e-05      0.200357159     0.964308156
12.663864            0.194847837     0.965428962   0.000170836491 -4.66217237e-05   0.000170836491 -4.66217235e-05      0.200680036     0.964231573
12.663892            0.195170149     0.965354455   0.000171068421 -4.67504246e-05   0.000171068421 -4.67504244e-05      0.201003102     0.964154824
12.66392              0.19549265     0.965279784    0.00017130071 -4.68794566e-05    0.00017130071 -4.68794563e-05      0.201326356     0.964077909
12.663948            0.195815339     0.965204949   0.000171533357 -4.70088205e-05   0.000171533357 -4.70088202e-05        0.2016498     0.964000828
12.663976            0.196138217     0.965129951   0.000171766363 -4.71385172e-05   0.000171766363  -4.7138517e-05      0.201973433      0.96392358
12.664004            0.196461283     0.965054787    0.00017199973 -4.72685477e-05    0.00017199973 -4.72685475e-05      0.202297255     0.963846166
12.664032            0.196784539      0.96497946   0.000172233457 -4.73989128e-05   0.000172233457 -4.73989126e-05      0.202621268     0.963768584
12.66406             0.197107984     0.964903967   0.000172467544 -4.75296135e-05   0.000172467544 -4.75296132e-05       0.20294547     0.963690834
12.664088            0.197431618     0.964828309   0.000172701994 -4.76606505e-05   0.000172701994 -4.76606503e-05      0.203269862     0.963612917
12.664116            0.197755442     0.964752485   0.000172936805 -4.77920249e-05   0.000172936805 -4.77920247e-05      0.203594444     0.963534832
12.664144            0.198079456     0.964676495    0.00017317198 -4.79237375e-05    0.00017317198 -4.79237373e-05      0.203919217     0.963456579
12.664172             0.19840366      0.96460034   0.000173407517 -4.80557892e-05   0.000173407517  -4.8055789e-05       0.20424418     0.963378157
12.6642              0.198728054     0.964524017   0.000173643418  -4.8188181e-05   0.000173643418 -4.81881808e-05      0.204569334     0.963299566
12.664228            0.199052638     0.964447528   0.000173879684 -4.83209137e-05   0.000173879684 -4.83209135e-05      0.204894679     0.963220806
12.664256            0.199377413     0.964370873   0.000174116315 -4.84539883e-05   0.000174116315  -4.8453988e-05      0.205220215     0.963141876
12.664284            0.199702378     0.964294049   0.000174353311 -4.85874056e-05   0.000174353311 -4.85874053e-05      0.205545943     0.963062776
12.664312            0.200027535     0.964217058   0.000174590673 -4.87211666e-05   0.000174590673 -4.87211663e-05      0.205871862     0.962983506
12.66434             0.200352882       0.9641399   0.000174828402 -4.88552722e-05   0.000174828402 -4.88552719e-05      0.206197973     0.962904066
12.664368             0.20067842     0.964062573   0.000175066498 -4.89897233e-05   0.000175066498 -4.89897231e-05      0.206524275     0.962824455
12.664396             0.20100415     0.963985077   0.000175304961 -4.91245209e-05   0.000175304961 -4.91245207e-05       0.20685077     0.962744673
12.664424            0.201330072     0.963907413   0.000175543793 -4.92596659e-05   0.000175543793 -4.92596656e-05      0.207177457      0.96266472
12.664452            0.201656186     0.963829579   0.000175782994 -4.93951592e-05   0.000175782994 -4.93951589e-05      0.207504336     0.962584595
12.66448             0.201982491     0.963751577   0.000176022565 -4.95310017e-05   0.000176022565 -4.95310014e-05      0.207831408     0.962504298
12.664508            0.202308988     0.963673404   0.000176262505 -4.96671944e-05   0.000176262505 -4.96671941e-05      0.208158672     0.962423829
12.664536            0.202635678     0.963595062   0.000176502816 -4.98037382e-05   0.000176502816  -4.9803738e-05       0.20848613     0.962343188
12.664564            0.202962561     0.963516549   0.000176743498 -4.99406341e-05   0.000176743498 -4.99406338e-05      0.208813781     0.962262373
12.664592            0.203289636     0.963437866   0.000176984552 -5.00778829e-05   0.000176984552 -5.00778827e-05      0.209141625     0.962181386
12.66462             0.203616904     0.963359011   0.000177225979 -5.02154857e-05   0.000177225979 -5.02154855e-05      0.209469663     0.962100225
12.664648            0.203944365     0.963279986   0.000177467778 -5.03534434e-05   0.000177467778 -5.03534432e-05      0.209797894      0.96201889
12.664676            0.204272019     0.963200789    0.00017770995 -5.04917569e-05    0.00017770995 -5.04917567e-05      0.210126319     0.961937381
12.664704            0.204599867      0.96312142   0.000177952497 -5.06304273e-05   0.000177952497  -5.0630427e-05      0.210454938     0.961855698
12.664732            0.204927908     0.963041879   0.000178195418 -5.07694553e-05   0.000178195418 -5.07694551e-05      0.210783752      0.96177384
12.66476             0.205256143     0.962962166   0.000178438714 -5.09088421e-05   0.000178438714 -5.09088418e-05       0.21111276     0.961691807
12.664788            0.205584573      0.96288228   0.000178682386 -5.10485885e-05   0.000178682386 -5.10485883e-05      0.211441963     0.961609598
12.664816            0.205913196     0.962802221   0.000178926434 -5.11886956e-05   0.000178926434 -5.11886953e-05       0.21177136     0.961527214
12.664844            0.206242014     0.962721989   0.000179170859 -5.13291643e-05   0.000179170859  -5.1329164e-05      0.212100953     0.961444654
12.664872            0.206571026     0.962641583   0.000179415662 -5.14699955e-05   0.000179415662 -5.14699952e-05      0.212430741     0.961361918
12.6649              0.206900233     0.962561003   0.000179660843 -5.16111903e-05   0.000179660843   -5.161119e-05      0.212760724     0.961279006
12.664928            0.207229635     0.962480249   0.000179906402 -5.17527495e-05   0.000179906402 -5.17527493e-05      0.213090902     0.961195916
12.664956            0.207559232      0.96239932    0.00018015234 -5.18946743e-05    0.00018015234  -5.1894674e-05      0.213421277     0.961112649
12.664984            0.207889025     0.962318216   0.000180398658 -5.20369655e-05   0.000180398658 -5.20369652e-05      0.213751847     0.961029205
12.665012            0.208219013     0.962236938   0.000180645357 -5.21796242e-05   0.000180645357 -5.21796239e-05      0.214082614     0.960945583
12.66504             0.208549196     0.962155483   0.000180892436 -5.23226513e-05   0.000180892436  -5.2322651e-05      0.214413577     0.960861783
12.665068            0.208879576     0.962073853   0.000181139897 -5.24660478e-05   0.000181139897 -5.24660475e-05      0.214744736     0.960777804
12.665096            0.209210152     0.961992047   0.000181387739 -5.26098147e-05   0.000181387739 -5.26098145e-05      0.215076092     0.960693647
12.665124            0.209540923     0.961910064   0.000181635965 -5.27539531e-05   0.000181635965 -5.27539528e-05      0.215407645      0.96060931
12.665152            0.209871892     0.961827905   0.000181884573 -5.28984638e-05   0.000181884573 -5.28984635e-05      0.215739396     0.960524794
12.66518             0.210203056     0.961745569   0.000182133566 -5.30433479e-05   0.000182133566 -5.30433477e-05      0.216071343     0.960440099
12.665208            0.210534418     0.961663055   0.000182382943 -5.31886064e-05   0.000182382943 -5.31886062e-05      0.216403488     0.960355223
12.665236            0.210865977     0.961580363   0.000182632704 -5.33342404e-05   0.000182632704 -5.33342401e-05       0.21673583     0.960270167
12.665264            0.211197733     0.961497494   0.000182882852 -5.34802507e-05   0.000182882852 -5.34802504e-05      0.217068371      0.96018493
12.665292            0.211529686     0.961414446   0.000183133385 -5.36266384e-05   0.000183133385 -5.36266382e-05      0.217401109     0.960099512
12.66532             0.211861837     0.961331219   0.000183384305 -5.37734046e-05   0.000183384305 -5.37734044e-05      0.217734046     0.960013913
12.665348            0.212194186     0.961247814   0.000183635612 -5.39205502e-05   0.000183635612   -5.392055e-05      0.218067181     0.959928132
12.665376            0.212526732     0.961164229   0.000183887307 -5.40680763e-05   0.000183887307  -5.4068076e-05      0.218400515     0.959842169
12.665404            0.212859477     0.961080465   0.000184139391 -5.42159839e-05   0.000184139391 -5.42159836e-05      0.218734047     0.959756024