! TOUCHSTONE file generated by CST MICROWAVE STUDIO
! Date and time: Wed Jul 31 11:50:13 2024
! Project name: WaveGuide_BPF-Ver4.1_U-shape_Ku_T3_C4_CWA_2.cst
! Parameters = {cavity_h=16; cavity_l0=10; cavity_l1=15.212; cavity_l2=16.8155; cavity_l3=17.0981; cavity_l4=17.2653; cavity_l5=17.1137; cavity_l6=17.6101; cavity_r=2.5; cavity_screw_l=0.5; cavity_screw_r=1.5; cavity_w=8; iris_h00=0; iris_h01=8.8088; iris_h112=0; iris_h12=5.6024; iris_h211=3.6637; iris_h23=5.2022; iris_h310=3.977; iris_h34=5.0711; iris_h45=4.9248; iris_h49=4.6203; iris_h56=4.7885; iris_h58=4.4433; iris_h67=6.5738; iris_rx=0.1; iris_screw_l=0.5; iris_screw_r=1.5; iris_shift00=0; iris_shift112=0; iris_shift211=3.5; iris_shift310=0; iris_shift49=0; iris_shift58=3.5; iris_shift67=3.5; iris_tx=4.5; iris_tz=4.5; iris_w00=0; iris_w112=0; iris_w211=4; iris_w310=3.977; iris_w49=4.6203; iris_w58=4; iris_w67=4; mesh_cavity=5; mesh_iris=7; mesh_screw=7; order=12; reset_all=0; sigma=4.8e+07}
! Header version: 2018
! Port assignment regex: !\s*Touchstone port\s*([0-9]+)\s*=\s*(CST MWS port|CST DS port)\s*([0-9]+|Zmin|Zmax)\s*\(\"(.*)\"\)(\s*mode\s*([0-9]+))?.*
! Touchstone port assignment:
! Touchstone port 1 = CST MWS port 1 ("")
! Touchstone port 2 = CST MWS port 2 ("")
# GHz S RI R 50
12.66                0.326841233     0.924812983    0.00019233675 -8.33517508e-05   0.000192336749 -8.33517507e-05      0.333510133     0.922310189
12.660028            0.327239903     0.924658094   0.000192584352 -8.35640539e-05   0.000192584352 -8.35640539e-05      0.333911522     0.922150837
12.660056            0.327638764     0.924502922   0.000192832295 -8.37768892e-05   0.000192832295 -8.37768891e-05      0.334313121     0.921991189
12.660084             0.32803783     0.924347462   0.000193080577 -8.39902595e-05   0.000193080577 -8.39902595e-05      0.334714935     0.921831244
12.660112            0.328437112      0.92419171   0.000193329197  -8.4204168e-05   0.000193329197 -8.42041679e-05      0.335116969     0.921670998
12.66014             0.328836623      0.92403566   0.000193578154 -8.44186175e-05   0.000193578154 -8.44186174e-05       0.33551923     0.921510448
12.660168            0.329236365     0.923879311   0.000193827449 -8.46336096e-05   0.000193827448 -8.46336095e-05      0.335921716     0.921349596
12.660196            0.329636328     0.923722668   0.000194077082 -8.48491445e-05   0.000194077082 -8.48491445e-05      0.336324425     0.921188441
12.660224            0.330036512     0.923565728   0.000194327055 -8.50652239e-05   0.000194327054 -8.50652238e-05      0.336727357     0.921026982
12.660252            0.330436919     0.923408491   0.000194577366 -8.52818491e-05   0.000194577366  -8.5281849e-05      0.337130511      0.92086522
12.66028             0.330837547     0.923250957   0.000194828018 -8.54990216e-05   0.000194828017 -8.54990215e-05      0.337533889     0.920703153
12.660308            0.331238397     0.923093126    0.00019507901 -8.57167429e-05   0.000195079009 -8.57167428e-05      0.337937489     0.920540782
12.660336            0.331639469     0.922934996   0.000195330342 -8.59350143e-05   0.000195330342 -8.59350143e-05      0.338341313     0.920378105
12.660364            0.332040763     0.922776568   0.000195582016 -8.61538375e-05   0.000195582015 -8.61538374e-05       0.33874536     0.920215123
12.660392             0.33244228      0.92261784    0.00019583403 -8.63732138e-05    0.00019583403 -8.63732138e-05       0.33914963     0.920051834
12.66042             0.332844019     0.922458813   0.000196086386 -8.65931448e-05   0.000196086386 -8.65931447e-05      0.339554124     0.919888238
12.660448             0.33324598     0.922299485   0.000196339085 -8.68136319e-05   0.000196339084 -8.68136318e-05      0.339958841     0.919724335
12.660476            0.333648164     0.922139857   0.000196592125 -8.70346766e-05   0.000196592125 -8.70346765e-05      0.340363782     0.919560124
12.660504            0.334050571     0.921979927   0.000196845509 -8.72562804e-05   0.000196845508 -8.72562803e-05      0.340768947     0.919395604
12.660532            0.334453201     0.921819696   0.000197099235 -8.74784448e-05   0.000197099235 -8.74784448e-05      0.341174336     0.919230775
12.66056             0.334856054     0.921659162   0.000197353306 -8.77011714e-05   0.000197353305 -8.77011713e-05      0.341579949     0.919065637
12.660588            0.335259129     0.921498326   0.000197607719 -8.79244615e-05   0.000197607719 -8.79244614e-05      0.341985786     0.918900189
12.660616            0.335662428     0.921337186   0.000197862477 -8.81483167e-05   0.000197862477 -8.81483166e-05      0.342391848      0.91873443
12.660644            0.336065951     0.921175742    0.00019811758 -8.83727386e-05    0.00019811758 -8.83727385e-05      0.342798134      0.91856836
12.660672            0.336469696     0.921013993   0.000198373028 -8.85977285e-05   0.000198373027 -8.85977285e-05      0.343204644     0.918401978
12.6607              0.336873666      0.92085194   0.000198628821 -8.88232882e-05    0.00019862882 -8.88232881e-05      0.343611379     0.918235283
12.660728            0.337277859     0.920689582   0.000198884959  -8.9049419e-05   0.000198884959  -8.9049419e-05      0.344018339     0.918068277
12.660756            0.337682275     0.920526917   0.000199141444 -8.92761226e-05   0.000199141443 -8.92761225e-05      0.344425523     0.917900956
12.660784            0.338086916     0.920363946   0.000199398275 -8.95034004e-05   0.000199398274 -8.95034003e-05      0.344832933     0.917733322
12.660812             0.33849178     0.920200667   0.000199655452  -8.9731254e-05   0.000199655452 -8.97312539e-05      0.345240567     0.917565374
12.66084             0.338896869     0.920037081   0.000199912977 -8.99596849e-05   0.000199912976 -8.99596848e-05      0.345648427      0.91739711
12.660868            0.339302182     0.919873187   0.000200170849 -9.01886947e-05   0.000200170849 -9.01886946e-05      0.346056512     0.917228531
12.660896            0.339707719     0.919708985   0.000200429069 -9.04182849e-05   0.000200429069 -9.04182848e-05      0.346464822     0.917059636
12.660924            0.340113481     0.919544473   0.000200687637 -9.06484571e-05   0.000200687637  -9.0648457e-05      0.346873358     0.916890425
12.660952            0.340519467     0.919379652   0.000200946554 -9.08792128e-05   0.000200946554 -9.08792127e-05       0.34728212     0.916720896
12.66098             0.340925678      0.91921452    0.00020120582 -9.11105536e-05   0.000201205819 -9.11105536e-05      0.347691107      0.91655105
12.661008            0.341332114     0.919049077   0.000201465435 -9.13424812e-05   0.000201465434 -9.13424811e-05       0.34810032     0.916380885
12.661036            0.341738775     0.918883323   0.000201725399 -9.15749969e-05   0.000201725398 -9.15749968e-05      0.348509759     0.916210401
12.661064             0.34214566     0.918717258   0.000201985713 -9.18081025e-05   0.000201985713 -9.18081024e-05      0.348919424     0.916039599
12.661092            0.342552771      0.91855088   0.000202246378 -9.20417995e-05   0.000202246378 -9.20417994e-05      0.349329315     0.915868476
12.66112             0.342960107     0.918384189   0.000202507393 -9.22760895e-05   0.000202507393 -9.22760894e-05      0.349739432     0.915697033
12.661148            0.343367669     0.918217184    0.00020276876  -9.2510974e-05   0.000202768759  -9.2510974e-05      0.350149776     0.915525269
12.661176            0.343775456     0.918049866   0.000203030478 -9.27464548e-05   0.000203030477 -9.27464547e-05      0.350560346     0.915353183
12.661204            0.344183468     0.917882232   0.000203292547 -9.29825333e-05   0.000203292547 -9.29825332e-05      0.350971143     0.915180775
12.661232            0.344591706     0.917714284   0.000203554969 -9.32192112e-05   0.000203554968 -9.32192112e-05      0.351382166     0.915008045
12.66126              0.34500017      0.91754602   0.000203817743 -9.34564901e-05   0.000203817742 -9.34564901e-05      0.351793417     0.914834991
12.661288             0.34540886      0.91737744    0.00020408087 -9.36943716e-05   0.000204080869 -9.36943716e-05      0.352204894     0.914661614
12.661316            0.345817776     0.917208544   0.000204344349 -9.39328574e-05   0.000204344349 -9.39328573e-05      0.352616598     0.914487912
12.661344            0.346226918     0.917039329   0.000204608183  -9.4171949e-05   0.000204608182 -9.41719489e-05      0.353028529     0.914313885
12.661372            0.346636286     0.916869797    0.00020487237  -9.4411648e-05    0.00020487237 -9.44116479e-05      0.353440688     0.914139533
12.6614              0.347045881     0.916699947   0.000205136912 -9.46519562e-05   0.000205136911 -9.46519561e-05      0.353853074     0.913964854
12.661428            0.347455702     0.916529778   0.000205401808 -9.48928751e-05   0.000205401807  -9.4892875e-05      0.354265687     0.913789849
12.661456            0.347865749     0.916359289   0.000205667059 -9.51344063e-05   0.000205667058 -9.51344063e-05      0.354678528     0.913614517
12.661484            0.348276023      0.91618848   0.000205932665 -9.53765517e-05   0.000205932664 -9.53765516e-05      0.355091596     0.913438857
12.661512            0.348686525     0.916017351   0.000206198626 -9.56193126e-05   0.000206198626 -9.56193126e-05      0.355504892     0.913262869
12.66154             0.349097252       0.9158459   0.000206464944  -9.5862691e-05   0.000206464944 -9.58626909e-05      0.355918416     0.913086552
12.661568            0.349508207     0.915674128   0.000206731618 -9.61066883e-05   0.000206731617 -9.61066882e-05      0.356332168     0.912909905
12.661596            0.349919389     0.915502033   0.000206998649 -9.63513063e-05   0.000206998648 -9.63513062e-05      0.356746148     0.912732929
12.661624            0.350330799     0.915329615   0.000207266036 -9.65965466e-05   0.000207266036 -9.65965465e-05      0.357160356     0.912555622
12.661652            0.350742435     0.915156874   0.000207533781 -9.68424109e-05    0.00020753378 -9.68424108e-05      0.357574793     0.912377983
12.66168             0.351154299      0.91498381   0.000207801883 -9.70889009e-05   0.000207801883 -9.70889008e-05      0.357989457     0.912200013
12.661708            0.351566391      0.91481042   0.000208070344 -9.73360182e-05   0.000208070343 -9.73360181e-05      0.358404351      0.91202171
12.661736             0.35197871     0.914636706   0.000208339163 -9.75837646e-05   0.000208339162 -9.75837646e-05      0.358819472     0.911843075
12.661764            0.352391257     0.914462665    0.00020860834 -9.78321418e-05    0.00020860834 -9.78321417e-05      0.359234823     0.911664106
12.661792            0.352804032     0.914288299   0.000208877877 -9.80811514e-05   0.000208877876 -9.80811513e-05      0.359650402     0.911484803
12.66182             0.353217034     0.914113606   0.000209147773 -9.83307951e-05   0.000209147772  -9.8330795e-05       0.36006621     0.911305165
12.661848            0.353630265     0.913938585   0.000209418028 -9.85810747e-05   0.000209418028 -9.85810746e-05      0.360482247     0.911125192
12.661876            0.354043724     0.913763237   0.000209688644 -9.88319919e-05   0.000209688644 -9.88319918e-05      0.360898514     0.910944884
12.661904            0.354457412      0.91358756    0.00020995962 -9.90835483e-05    0.00020995962 -9.90835482e-05      0.361315009     0.910764238
12.661932            0.354871327     0.913411554   0.000210230957 -9.93357457e-05   0.000210230956 -9.93357456e-05      0.361731734     0.910583256
12.66196             0.355285471     0.913235218   0.000210502655 -9.95885859e-05   0.000210502654 -9.95885858e-05      0.362148688     0.910401936
12.661988            0.355699844     0.913058552   0.000210774714 -9.98420705e-05   0.000210774714 -9.98420704e-05      0.362565871     0.910220278
12.662016            0.356114446     0.912881555   0.000211047135 -0.000100096201   0.000211047135 -0.000100096201      0.362983285     0.910038281
12.662044            0.356529276     0.912704227   0.000211319918  -0.00010035098   0.000211319918  -0.00010035098      0.363400927     0.909855945
12.662072            0.356944335     0.912526567   0.000211593064 -0.000100606409   0.000211593063 -0.000100606408        0.3638188     0.909673269
12.6621              0.357359623     0.912348574   0.000211866572 -0.000100862488   0.000211866571 -0.000100862488      0.364236902     0.909490252
12.662128            0.357775141     0.912170248   0.000212140443 -0.000101119222   0.000212140443 -0.000101119221      0.364655235     0.909306895
12.662156            0.358190887     0.911991589   0.000212414678  -0.00010137661   0.000212414677 -0.000101376609      0.365073797     0.909123195
12.662184            0.358606863     0.911812595   0.000212689276 -0.000101634654   0.000212689276 -0.000101634654       0.36549259     0.908939153
12.662212            0.359023068     0.911633266   0.000212964239 -0.000101893358   0.000212964238 -0.000101893357      0.365911613     0.908754768
12.66224             0.359439503     0.911453602   0.000213239566 -0.000102152721   0.000213239565 -0.000102152721      0.366330867      0.90857004
12.662268            0.359856168     0.911273602   0.000213515258 -0.000102412747   0.000213515257 -0.000102412747      0.366750351     0.908384967
12.662296            0.360273062     0.911093265   0.000213791314 -0.000102673436   0.000213791314 -0.000102673436      0.367170065      0.90819955
12.662324            0.360690186     0.910912591   0.000214067736 -0.000102934791   0.000214067736 -0.000102934791       0.36759001     0.908013787
12.662352             0.36110754      0.91073158   0.000214344524 -0.000103196814   0.000214344524 -0.000103196813      0.368010186     0.907827679
12.66238             0.361525124     0.910550229   0.000214621678 -0.000103459505   0.000214621678 -0.000103459505      0.368430593     0.907641223
12.662408            0.361942938      0.91036854   0.000214899198 -0.000103722868   0.000214899198 -0.000103722868       0.36885123     0.907454421
12.662436            0.362360983     0.910186512   0.000215177085 -0.000103986903   0.000215177085 -0.000103986903      0.369272099     0.907267271
12.662464            0.362779258     0.910004143   0.000215455339 -0.000104251614   0.000215455339 -0.000104251614      0.369693199     0.907079772
12.662492            0.363197763     0.909821433   0.000215733961    -0.000104517    0.00021573396    -0.000104517       0.37011453     0.906891925
12.66252             0.363616499     0.909638382   0.000216012949 -0.000104783065   0.000216012949 -0.000104783065      0.370536093     0.906703728
12.662548            0.364035465     0.909454989   0.000216292306 -0.000105049811   0.000216292306  -0.00010504981      0.370957887      0.90651518
12.662576            0.364454662     0.909271254   0.000216572032 -0.000105317238   0.000216572031 -0.000105317238      0.371379912     0.906326282
12.662604             0.36487409     0.909087175   0.000216852125 -0.000105585349   0.000216852125 -0.000105585348      0.371802169     0.906137033
12.662632            0.365293749     0.908902753   0.000217132588 -0.000105854145   0.000217132588 -0.000105854145      0.372224658     0.905947431
12.66266             0.365713639     0.908717986    0.00021741342 -0.000106123629    0.00021741342 -0.000106123629      0.372647379     0.905757477
12.662688             0.36613376     0.908532874   0.000217694622 -0.000106393803   0.000217694621 -0.000106393803      0.373070332     0.905567169
12.662716            0.366554113     0.908347417   0.000217976193 -0.000106664668   0.000217976193 -0.000106664668      0.373493516     0.905376507
12.662744            0.366974696     0.908161613   0.000218258135 -0.000106936226   0.000218258135 -0.000106936225      0.373916933     0.905185491
12.662772            0.367395512     0.907975463   0.000218540447 -0.000107208478   0.000218540447 -0.000107208478      0.374340582      0.90499412
12.6628              0.367816558     0.907788965    0.00021882313 -0.000107481428    0.00021882313 -0.000107481428      0.374764463     0.904802393
12.662828            0.368237837      0.90760212   0.000219106185 -0.000107755077   0.000219106184 -0.000107755077      0.375188576     0.904610309
12.662856            0.368659347     0.907414925    0.00021938961 -0.000108029426    0.00021938961 -0.000108029426      0.375612922     0.904417868
12.662884            0.369081088     0.907227382   0.000219673408 -0.000108304477   0.000219673407 -0.000108304477      0.376037501      0.90422507
12.662912            0.369503062     0.907039489   0.000219957577 -0.000108580234   0.000219957577 -0.000108580234      0.376462312     0.904031914
12.66294             0.369925268     0.906851245   0.000220242119 -0.000108856696   0.000220242119 -0.000108856696      0.376887356     0.903838398
12.662968            0.370347706      0.90666265   0.000220527034 -0.000109133867   0.000220527033 -0.000109133867      0.377312633     0.903644523
12.662996            0.370770376     0.906473703   0.000220812321 -0.000109411748   0.000220812321 -0.000109411748      0.377738142     0.903450288
12.663024            0.371193279     0.906284405   0.000221097982 -0.000109690341   0.000221097982 -0.000109690341      0.378163885     0.903255691
12.663052            0.371616414     0.906094753   0.000221384017 -0.000109969648   0.000221384016 -0.000109969648      0.378589861     0.903060734
12.66308             0.372039781     0.905904747   0.000221670425 -0.000110249671   0.000221670425 -0.000110249671       0.37901607     0.902865414
12.663108            0.372463381     0.905714388   0.000221957208 -0.000110530412   0.000221957207 -0.000110530412      0.379442512     0.902669732
12.663136            0.372887213     0.905523674   0.000222244365 -0.000110811872   0.000222244365 -0.000110811872      0.379869188     0.902473686
12.663164            0.373311279     0.905332604   0.000222531897 -0.000111094055   0.000222531897 -0.000111094055      0.380296097     0.902277276
12.663192            0.373735577     0.905141178   0.000222819804 -0.000111376961   0.000222819804 -0.000111376961      0.380723239     0.902080501
12.66322             0.374160108     0.904949396   0.000223108087 -0.000111660593   0.000223108086 -0.000111660593      0.381150616     0.901883361
12.663248            0.374584873     0.904757256   0.000223396745 -0.000111944953   0.000223396744 -0.000111944953      0.381578226     0.901685856
12.663276             0.37500987     0.904564759   0.000223685779 -0.000112230042   0.000223685779 -0.000112230042      0.382006069     0.901487983
12.663304            0.375435101     0.904371903    0.00022397519 -0.000112515863   0.000223975189 -0.000112515863      0.382434147     0.901289744
12.663332            0.375860565     0.904178687   0.000224264977 -0.000112802418   0.000224264976 -0.000112802418      0.382862459     0.901091136
12.66336             0.376286262     0.903985112   0.000224555141 -0.000113089708    0.00022455514 -0.000113089708      0.383291004      0.90089216
12.663388            0.376712193     0.903791177   0.000224845682 -0.000113377736   0.000224845681 -0.000113377736      0.383719784     0.900692815
12.663416            0.377138358      0.90359688   0.000225136601 -0.000113666503     0.0002251366 -0.000113666503      0.384148798     0.900493099
12.663444            0.377564756     0.903402221   0.000225427897 -0.000113956012   0.000225427897 -0.000113956012      0.384578047     0.900293014
12.663472            0.377991388     0.903207201   0.000225719572 -0.000114246265   0.000225719571 -0.000114246265      0.385007529     0.900092557
12.6635              0.378418254     0.903011817   0.000226011624 -0.000114537263   0.000226011624 -0.000114537263      0.385437247     0.899891728
12.663528            0.378845354     0.902816069   0.000226304056 -0.000114829009   0.000226304055 -0.000114829009      0.385867199     0.899690527
12.663556            0.379272688     0.902619958   0.000226596866 -0.000115121504   0.000226596866 -0.000115121504      0.386297385     0.899488953
12.663584            0.379700256     0.902423481   0.000226890056 -0.000115414752   0.000226890055 -0.000115414752      0.386727806     0.899287005
12.663612            0.380128058     0.902226639   0.000227183625 -0.000115708753   0.000227183624 -0.000115708753      0.387158462     0.899084683
12.66364             0.380556095      0.90202943   0.000227477573  -0.00011600351   0.000227477573 -0.000116003509      0.387589353     0.898881985
12.663668            0.380984366     0.901831855   0.000227771902 -0.000116299024   0.000227771901 -0.000116299024      0.388020479     0.898678912
12.663696            0.381412872     0.901633912   0.000228066611 -0.000116595299   0.000228066611 -0.000116595299       0.38845184     0.898475462
12.663724            0.381841612     0.901435601   0.000228361701 -0.000116892336     0.0002283617 -0.000116892335      0.388883436     0.898271635
12.663752            0.382270586     0.901236922   0.000228657171 -0.000117190136   0.000228657171 -0.000117190136      0.389315268      0.89806743
12.66378             0.382699796     0.901037872   0.000228953023 -0.000117488703   0.000228953022 -0.000117488703      0.389747334     0.897862847
12.663808             0.38312924     0.900838453   0.000229249256 -0.000117788038   0.000229249255 -0.000117788038      0.390179636     0.897657885
12.663836             0.38355892     0.900638663   0.000229545871 -0.000118088143    0.00022954587 -0.000118088143      0.390612174     0.897452543
12.663864            0.383988834     0.900438501   0.000229842867 -0.000118389021   0.000229842867 -0.000118389021      0.391044947      0.89724682
12.663892            0.384418984     0.900237968   0.000230140246 -0.000118690673   0.000230140246 -0.000118690673      0.391477956     0.897040717
12.66392             0.384849368     0.900037061   0.000230438008 -0.000118993102   0.000230438007 -0.000118993102        0.3919112     0.896834231
12.663948            0.385279988     0.899835781   0.000230736152 -0.000119296309   0.000230736151 -0.000119296309       0.39234468     0.896627363
12.663976            0.385710843     0.899634127   0.000231034679 -0.000119600298   0.000231034678 -0.000119600298      0.392778396     0.896420112
12.664004            0.386141934     0.899432099   0.000231333589 -0.000119905069   0.000231333589 -0.000119905069      0.393212348     0.896212477
12.664032             0.38657326     0.899229695   0.000231632883 -0.000120210625   0.000231632883 -0.000120210625      0.393646536     0.896004457
12.66406             0.387004822     0.899026915   0.000231932561 -0.000120516969    0.00023193256 -0.000120516969       0.39408096     0.895796053
12.664088             0.38743662     0.898823758   0.000232232623 -0.000120824102   0.000232232622 -0.000120824101       0.39451562     0.895587262
12.664116            0.387868653     0.898620224   0.000232533069 -0.000121132026   0.000232533068 -0.000121132026      0.394950517     0.895378085
12.664144            0.388300922     0.898416311     0.0002328339 -0.000121440744   0.000232833899 -0.000121440744       0.39538565      0.89516852
12.664172            0.388733427      0.89821202   0.000233135115 -0.000121750258   0.000233135115 -0.000121750258      0.395821019     0.894958568
12.6642              0.389166168      0.89800735   0.000233436716 -0.000122060569   0.000233436715 -0.000122060569      0.396256624     0.894748227
12.664228            0.389599146     0.897802299   0.000233738702 -0.000122371681   0.000233738701 -0.000122371681      0.396692466     0.894537496
12.664256            0.390032359     0.897596868   0.000234041073 -0.000122683596   0.000234041073 -0.000122683596      0.397128545     0.894326376
12.664284            0.390465809     0.897391055   0.000234343831 -0.000122996314    0.00023434383 -0.000122996314      0.397564861     0.894114865
12.664312            0.390899494      0.89718486   0.000234646974  -0.00012330984   0.000234646974  -0.00012330984      0.398001413     0.893902962
12.66434             0.391333417     0.896978283   0.000234950504 -0.000123624174   0.000234950504 -0.000123624174      0.398438202     0.893690667
12.664368            0.391767576     0.896771321   0.000235254421  -0.00012393932    0.00023525442  -0.00012393932      0.398875228      0.89347798
12.664396            0.392201971     0.896563976   0.000235558724 -0.000124255278   0.000235558723 -0.000124255278      0.399312491     0.893264898
12.664424            0.392636603     0.896356246   0.000235863414 -0.000124572053   0.000235863414 -0.000124572053      0.399749991     0.893051423
12.664452            0.393071472      0.89614813   0.000236168492 -0.000124889645   0.000236168491 -0.000124889645      0.400187728     0.892837553
12.66448             0.393506578     0.895939628   0.000236473957 -0.000125208057   0.000236473956 -0.000125208057      0.400625702     0.892623287
12.664508             0.39394192      0.89573074    0.00023677981 -0.000125527291   0.000236779809 -0.000125527291      0.401063914     0.892408625
12.664536              0.3943775     0.895521463   0.000237086051  -0.00012584735    0.00023708605  -0.00012584735      0.401502362     0.892193566
12.664564            0.394813316     0.895311799    0.00023739268 -0.000126168235    0.00023739268 -0.000126168235      0.401941049     0.891978109
12.664592             0.39524937     0.895101745   0.000237699698 -0.000126489949   0.000237699697 -0.000126489949      0.402379972     0.891762253
12.66462              0.39568566     0.894891302   0.000238007104 -0.000126812495   0.000238007104 -0.000126812495      0.402819134     0.891545999
12.664648            0.396122188     0.894680468   0.000238314899 -0.000127135874   0.000238314899 -0.000127135874      0.403258532     0.891329344
12.664676            0.396558954     0.894469244   0.000238623084 -0.000127460089   0.000238623083 -0.000127460088      0.403698169     0.891112289
12.664704            0.396995957     0.894257627   0.000238931658 -0.000127785141   0.000238931657 -0.000127785141      0.404138043     0.890894833
12.664732            0.397433197     0.894045618   0.000239240621 -0.000128111034   0.000239240621 -0.000128111034      0.404578155     0.890676974
12.66476             0.397870675     0.893833216   0.000239549975  -0.00012843777   0.000239549974  -0.00012843777      0.405018505     0.890458713
12.664788             0.39830839      0.89362042   0.000239859718 -0.000128765351   0.000239859717  -0.00012876535      0.405459093     0.890240048
12.664816            0.398746343      0.89340723   0.000240169852 -0.000129093778   0.000240169851 -0.000129093778      0.405899919      0.89002098
12.664844            0.399184534     0.893193644   0.000240480376 -0.000129423056   0.000240480375 -0.000129423055      0.406340982     0.889801506
12.664872            0.399622963     0.892979663   0.000240791291 -0.000129753185    0.00024079129 -0.000129753185      0.406782284     0.889581627
12.6649              0.400061629     0.892765284   0.000241102597 -0.000130084168   0.000241102596 -0.000130084168      0.407223824     0.889361341
12.664928            0.400500534     0.892550509   0.000241414293 -0.000130416008   0.000241414293 -0.000130416008      0.407665603     0.889140648
12.664956            0.400939677     0.892335335   0.000241726382 -0.000130748706   0.000241726381 -0.000130748706       0.40810762     0.888919548
12.664984            0.401379058     0.892119762   0.000242038861 -0.000131082266   0.000242038861 -0.000131082266      0.408549875     0.888698038
12.665012            0.401818677      0.89190379   0.000242351733 -0.000131416689   0.000242351732 -0.000131416689      0.408992368      0.88847612
12.66504             0.402258534     0.891687418   0.000242664997 -0.000131751979   0.000242664996 -0.000131751978        0.4094351     0.888253792
12.665068            0.402698629     0.891470645   0.000242978652 -0.000132088136   0.000242978652 -0.000132088136      0.409878071     0.888031053
12.665096            0.403138963      0.89125347     0.0002432927 -0.000132425164     0.0002432927 -0.000132425164       0.41032128     0.887807902
12.665124            0.403579536     0.891035893   0.000243607141 -0.000132763065    0.00024360714 -0.000132763065      0.410764728     0.887584339
12.665152            0.404020347     0.890817912   0.000243921974 -0.000133101841   0.000243921974 -0.000133101841      0.411208414     0.887360363
12.66518             0.404461397     0.890599528   0.000244237201 -0.000133441495     0.0002442372 -0.000133441495       0.41165234     0.887135974
12.665208            0.404902685     0.890380739    0.00024455282  -0.00013378203   0.000244552819  -0.00013378203      0.412096504      0.88691117
12.665236            0.405344212     0.890161545   0.000244868833 -0.000134123447   0.000244868832 -0.000134123447      0.412540907     0.886685951
12.665264            0.405785978     0.889941945   0.000245185239 -0.000134465749   0.000245185239 -0.000134465748      0.412985549     0.886460316
12.665292            0.406227982     0.889721939   0.000245502039 -0.000134808938   0.000245502039 -0.000134808938       0.41343043     0.886234264
12.66532             0.406670226     0.889501525   0.000245819233 -0.000135153017   0.000245819232 -0.000135153017       0.41387555     0.886007795
12.665348            0.407112708     0.889280702   0.000246136821 -0.000135497988    0.00024613682 -0.000135497988       0.41432091     0.885780908
12.665376             0.40755543     0.889059471   0.000246454803 -0.000135843854   0.000246454803 -0.000135843854      0.414766508     0.885553602
12.665404            0.407998391      0.88883783    0.00024677318 -0.000136190618   0.000246773179 -0.000136190617      0.415212346     0.885325876