! TOUCHSTONE file generated by CST MICROWAVE STUDIO
! Date and time: Wed Jul 31 12:13:27 2024
! Project name: WaveGuide_BPF-Ver4.1_U-shape_Ku_T3_C4_CWA_2.cst
! Parameters = {cavity_h=16; cavity_l0=10; cavity_l1=15.1628; cavity_l2=16.8021; cavity_l3=17.1259; cavity_l4=17.2621; cavity_l5=17.1413; cavity_l6=17.5921; cavity_r=2.5; cavity_screw_l=0.5; cavity_screw_r=1.5; cavity_w=8; iris_h00=0; iris_h01=8.8103; iris_h112=0; iris_h12=5.6011; iris_h211=3.6531; iris_h23=5.2113; iris_h310=3.9631; iris_h34=5.0914; iris_h45=4.9241; iris_h49=4.6175; iris_h56=4.8013; iris_h58=4.4334; iris_h67=6.5821; iris_rx=0.1; iris_screw_l=0.5; iris_screw_r=1.5; iris_shift00=0; iris_shift112=0; iris_shift211=3.5; iris_shift310=0; iris_shift49=0; iris_shift58=3.5; iris_shift67=3.5; iris_tx=4.5; iris_tz=4.5; iris_w00=0; iris_w112=0; iris_w211=4; iris_w310=3.9631; iris_w49=4.6175; iris_w58=4; iris_w67=4; mesh_cavity=5; mesh_iris=7; mesh_screw=7; order=12; reset_all=0; sigma=4.8e+07}
! Header version: 2018
! Port assignment regex: !\s*Touchstone port\s*([0-9]+)\s*=\s*(CST MWS port|CST DS port)\s*([0-9]+|Zmin|Zmax)\s*\(\"(.*)\"\)(\s*mode\s*([0-9]+))?.*
! Touchstone port assignment:
! Touchstone port 1 = CST MWS port 1 ("")
! Touchstone port 2 = CST MWS port 2 ("")
# GHz S RI R 50
12.66                0.176945419     0.969670823   0.000124344988  -3.0709343e-05   0.000124344988 -3.07093428e-05      0.182856596     0.968586787
12.660028            0.177251676     0.969606877   0.000124498607 -3.07912592e-05   0.000124498606  -3.0791259e-05      0.183162764     0.968520923
12.660056            0.177558019     0.969542806   0.000124652441 -3.08733657e-05   0.000124652441 -3.08733655e-05      0.183469098     0.968454916
12.660084             0.17786448     0.969478603   0.000124806491 -3.09556651e-05   0.000124806491 -3.09556649e-05      0.183775598     0.968388768
12.660112            0.178171095     0.969414261   0.000124960756 -3.10381598e-05   0.000124960755 -3.10381596e-05      0.184082262     0.968322479
12.66014             0.178477897     0.969349775   0.000125115235 -3.11208521e-05   0.000125115234 -3.11208519e-05      0.184389089     0.968256047
12.660168            0.178784886     0.969285144   0.000125269928 -3.12037426e-05   0.000125269928 -3.12037424e-05      0.184696079     0.968189474
12.660196             0.17909204     0.969220372   0.000125424837 -3.12868305e-05   0.000125424837 -3.12868303e-05      0.185003233     0.968122758
12.660224            0.179399358     0.969155458   0.000125579962 -3.13701163e-05   0.000125579962 -3.13701161e-05      0.185310551     0.968055899
12.660252            0.179706842     0.969090403   0.000125735303 -3.14536003e-05   0.000125735302 -3.14536001e-05      0.185618034     0.967988898
12.66028             0.180014492     0.969025206    0.00012589086 -3.15372832e-05   0.000125890859  -3.1537283e-05      0.185925682     0.967921754
12.660308            0.180322306     0.968959868   0.000126046633 -3.16211653e-05   0.000126046633 -3.16211651e-05      0.186233494     0.967854466
12.660336            0.180630286     0.968894387   0.000126202624 -3.17052472e-05   0.000126202624  -3.1705247e-05      0.186541471     0.967787035
12.660364            0.180938432     0.968828763   0.000126358832 -3.17895294e-05   0.000126358832 -3.17895292e-05      0.186849613     0.967719461
12.660392            0.181246743     0.968762998   0.000126515257 -3.18740123e-05   0.000126515257 -3.18740121e-05       0.18715792     0.967651742
12.66042              0.18155522     0.968697089   0.000126671901 -3.19586965e-05     0.0001266719 -3.19586963e-05      0.187466392      0.96758388
12.660448            0.181863864     0.968631037   0.000126828762 -3.20435824e-05   0.000126828761 -3.20435822e-05       0.18777503     0.967515872
12.660476            0.182172673     0.968564842   0.000126985842 -3.21286705e-05   0.000126985841 -3.21286703e-05      0.188083833     0.967447721
12.660504            0.182481649     0.968498503    0.00012714314 -3.22139613e-05    0.00012714314 -3.22139611e-05      0.188392802     0.967379424
12.660532            0.182790792      0.96843202   0.000127300657 -3.22994554e-05   0.000127300657 -3.22994551e-05      0.188701936     0.967310982
12.66056               0.1831001     0.968365394   0.000127458394 -3.23851531e-05   0.000127458394 -3.23851529e-05      0.189011237     0.967242395
12.660588            0.183409576     0.968298623   0.000127616351 -3.24710551e-05    0.00012761635 -3.24710548e-05      0.189320703     0.967173663
12.660616            0.183719218     0.968231708   0.000127774527 -3.25571617e-05   0.000127774527 -3.25571615e-05      0.189630336     0.967104785
12.660644            0.184029028     0.968164648   0.000127932924 -3.26434736e-05   0.000127932923 -3.26434734e-05      0.189940134      0.96703576
12.660672            0.184339005     0.968097443   0.000128091541 -3.27299911e-05    0.00012809154 -3.27299909e-05        0.1902501      0.96696659
12.6607              0.184649148     0.968030093   0.000128250379 -3.28167149e-05   0.000128250378 -3.28167147e-05      0.190560232     0.966897273
12.660728             0.18495946     0.967962598   0.000128409438 -3.29036454e-05   0.000128409437 -3.29036452e-05       0.19087053     0.966827809
12.660756            0.185269938     0.967894956   0.000128568718  -3.2990783e-05   0.000128568718 -3.29907828e-05      0.191180995     0.966758199
12.660784            0.185580585      0.96782717    0.00012872822 -3.30781284e-05    0.00012872822 -3.30781282e-05      0.191491628     0.966688441
12.660812            0.185891399     0.967759237   0.000128887945 -3.31656821e-05   0.000128887944 -3.31656819e-05      0.191802427     0.966618536
12.66084             0.186202381     0.967691157   0.000129047891 -3.32534444e-05   0.000129047891 -3.32534442e-05      0.192113394     0.966548483
12.660868            0.186513532     0.967622931   0.000129208061  -3.3341416e-05    0.00012920806 -3.33414158e-05      0.192424528     0.966478282
12.660896             0.18682485     0.967554559   0.000129368453 -3.34295974e-05   0.000129368452 -3.34295972e-05       0.19273583     0.966407933
12.660924            0.187136337     0.967486039   0.000129529068  -3.3517989e-05   0.000129529068 -3.35179888e-05      0.193047299     0.966337436
12.660952            0.187447992     0.967417372   0.000129689907 -3.36065914e-05   0.000129689907 -3.36065912e-05      0.193358936      0.96626679
12.66098             0.187759816     0.967348558    0.00012985097 -3.36954051e-05    0.00012985097 -3.36954049e-05      0.193670741     0.966195996
12.661008            0.188071809     0.967279595   0.000130012257 -3.37844306e-05   0.000130012257 -3.37844304e-05      0.193982714     0.966125052
12.661036            0.188383971     0.967210485   0.000130173769 -3.38736685e-05   0.000130173768 -3.38736683e-05      0.194294855     0.966053959
12.661064            0.188696301     0.967141227   0.000130335505 -3.39631192e-05   0.000130335504  -3.3963119e-05      0.194607164     0.965982717
12.661092            0.189008801      0.96707182   0.000130497466 -3.40527832e-05   0.000130497466  -3.4052783e-05      0.194919642     0.965911325
12.66112              0.18932147     0.967002264   0.000130659653 -3.41426612e-05   0.000130659652  -3.4142661e-05      0.195232289     0.965839783
12.661148            0.189634309      0.96693256   0.000130822065 -3.42327535e-05   0.000130822065 -3.42327533e-05      0.195545104      0.96576809
12.661176            0.189947317     0.966862706   0.000130984703 -3.43230608e-05   0.000130984703 -3.43230606e-05      0.195858088     0.965696247
12.661204            0.190260495     0.966792703   0.000131147568 -3.44135835e-05   0.000131147568 -3.44135833e-05      0.196171241     0.965624254
12.661232            0.190573843     0.966722551   0.000131310659 -3.45043223e-05   0.000131310659  -3.4504322e-05      0.196484563     0.965552109
12.66126             0.190887361     0.966652248   0.000131473977 -3.45952775e-05   0.000131473977 -3.45952773e-05      0.196798055     0.965479813
12.661288            0.191201049     0.966581796   0.000131637523 -3.46864498e-05   0.000131637522 -3.46864496e-05      0.197111716     0.965407366
12.661316            0.191514907     0.966511193   0.000131801296 -3.47778396e-05   0.000131801295 -3.47778394e-05      0.197425546     0.965334767
12.661344            0.191828936     0.966440439   0.000131965296 -3.48694476e-05   0.000131965296 -3.48694474e-05      0.197739547     0.965262016
12.661372            0.192143135     0.966369534   0.000132129525 -3.49612742e-05   0.000132129525 -3.49612739e-05      0.198053717     0.965189113
12.6614              0.192457505     0.966298479   0.000132293982 -3.50533199e-05   0.000132293982 -3.50533197e-05      0.198368056     0.965116057
12.661428            0.192772046     0.966227272   0.000132458668 -3.51455854e-05   0.000132458668 -3.51455852e-05      0.198682567     0.965042849
12.661456            0.193086758     0.966155913   0.000132623584 -3.52380711e-05   0.000132623583 -3.52380709e-05      0.198997247     0.964969488
12.661484            0.193401641     0.966084403   0.000132788728 -3.53307776e-05   0.000132788728 -3.53307773e-05      0.199312098     0.964895973
12.661512            0.193716695     0.966012741   0.000132954102 -3.54237054e-05   0.000132954102 -3.54237051e-05      0.199627119     0.964822306
12.66154              0.19403192     0.965940926   0.000133119706  -3.5516855e-05   0.000133119706 -3.55168548e-05      0.199942311     0.964748484
12.661568            0.194347318     0.965868959    0.00013328554 -3.56102271e-05    0.00013328554 -3.56102269e-05      0.200257673     0.964674509
12.661596            0.194662886     0.965796839   0.000133451605 -3.57038221e-05   0.000133451605 -3.57038219e-05      0.200573207     0.964600379
12.661624            0.194978627     0.965724565   0.000133617901 -3.57976406e-05   0.000133617901 -3.57976404e-05      0.200888911     0.964526096
12.661652             0.19529454     0.965652139   0.000133784428 -3.58916831e-05   0.000133784428 -3.58916829e-05      0.201204787     0.964451657
12.66168             0.195610624     0.965579559   0.000133951187 -3.59859503e-05   0.000133951186   -3.598595e-05      0.201520834     0.964377064
12.661708            0.195926881     0.965506825   0.000134118177 -3.60804425e-05   0.000134118177 -3.60804423e-05      0.201837053     0.964302315
12.661736            0.196243311     0.965433937   0.000134285399 -3.61751605e-05   0.000134285399 -3.61751602e-05      0.202153443     0.964227411
12.661764            0.196559912     0.965360895   0.000134452854 -3.62701046e-05   0.000134452854 -3.62701044e-05      0.202470005     0.964152352
12.661792            0.196876687     0.965287698   0.000134620542 -3.63652756e-05   0.000134620542 -3.63652754e-05      0.202786739     0.964077136
12.66182             0.197193634     0.965214347   0.000134788463 -3.64606739e-05   0.000134788462 -3.64606737e-05      0.203103645     0.964001764
12.661848            0.197510755      0.96514084   0.000134956617 -3.65563001e-05   0.000134956616 -3.65562999e-05      0.203420723     0.963926236
12.661876            0.197828048     0.965067179   0.000135125005 -3.66521547e-05   0.000135125004 -3.66521545e-05      0.203737974     0.963850552
12.661904            0.198145515     0.964993361   0.000135293626 -3.67482384e-05   0.000135293626 -3.67482382e-05      0.204055397      0.96377471
12.661932            0.198463155     0.964919388   0.000135462482 -3.68445517e-05   0.000135462482 -3.68445514e-05      0.204372992     0.963698711
12.66196             0.198780968     0.964845259   0.000135631573  -3.6941095e-05   0.000135631573 -3.69410948e-05       0.20469076     0.963622555
12.661988            0.199098955     0.964770973   0.000135800899 -3.70378691e-05   0.000135800898 -3.70378689e-05      0.205008701     0.963546241
12.662016            0.199417116     0.964696531    0.00013597046 -3.71348744e-05   0.000135970459 -3.71348742e-05      0.205326816     0.963469769
12.662044            0.199735451     0.964621932   0.000136140256 -3.72321116e-05   0.000136140255 -3.72321114e-05      0.205645103     0.963393139
12.662072             0.20005396     0.964547176   0.000136310288 -3.73295811e-05   0.000136310288 -3.73295809e-05      0.205963563     0.963316351
12.6621              0.200372643     0.964472263   0.000136480556 -3.74272837e-05   0.000136480556 -3.74272834e-05      0.206282197     0.963239404
12.662128            0.200691501     0.964397192   0.000136651061 -3.75252197e-05   0.000136651061 -3.75252195e-05      0.206601005     0.963162298
12.662156            0.201010533     0.964321963   0.000136821803 -3.76233898e-05   0.000136821803 -3.76233896e-05      0.206919986     0.963085033
12.662184            0.201329739     0.964246577   0.000136992782 -3.77217947e-05   0.000136992781 -3.77217944e-05      0.207239141     0.963007608
12.662212            0.201649121     0.964171031   0.000137163998 -3.78204347e-05   0.000137163998 -3.78204345e-05       0.20755847     0.962930024
12.66224             0.201968677     0.964095328   0.000137335452 -3.79193106e-05   0.000137335451 -3.79193104e-05      0.207877974     0.962852279
12.662268            0.202288409     0.964019465   0.000137507144 -3.80184229e-05   0.000137507143 -3.80184227e-05      0.208197651     0.962774375
12.662296            0.202608316     0.963943443   0.000137679074 -3.81177721e-05   0.000137679074 -3.81177719e-05      0.208517503      0.96269631
12.662324            0.202928398     0.963867262   0.000137851243 -3.82173589e-05   0.000137851242 -3.82173587e-05       0.20883753     0.962618084
12.662352            0.203248655     0.963790921   0.000138023651 -3.83171839e-05    0.00013802365 -3.83171837e-05      0.209157731     0.962539697
12.66238             0.203569088     0.963714421   0.000138196298 -3.84172476e-05   0.000138196298 -3.84172474e-05      0.209478107     0.962461149
12.662408            0.203889698      0.96363776   0.000138369185 -3.85175505e-05   0.000138369184 -3.85175503e-05      0.209798658     0.962382439
12.662436            0.204210483     0.963560939   0.000138542311 -3.86180934e-05   0.000138542311 -3.86180932e-05      0.210119384     0.962303567
12.662464            0.204531444     0.963483957   0.000138715678 -3.87188767e-05   0.000138715678 -3.87188765e-05      0.210440286     0.962224534
12.662492            0.204852581     0.963406814   0.000138889286 -3.88199011e-05   0.000138889285 -3.88199009e-05      0.210761363     0.962145338
12.66252             0.205173895      0.96332951   0.000139063134 -3.89211672e-05   0.000139063134 -3.89211669e-05      0.211082615     0.962065979
12.662548            0.205495385     0.963252044   0.000139237223 -3.90226754e-05   0.000139237223 -3.90226752e-05      0.211404043     0.961986458
12.662576            0.205817052     0.963174417   0.000139411554 -3.91244266e-05   0.000139411554 -3.91244263e-05      0.211725647     0.961906773
12.662604            0.206138895     0.963096627   0.000139586127 -3.92264211e-05   0.000139586127 -3.92264209e-05      0.212047427     0.961826925
12.662632            0.206460916     0.963018676   0.000139760942 -3.93286597e-05   0.000139760942 -3.93286595e-05      0.212369383     0.961746914
12.66266             0.206783114     0.962940562   0.000139935999 -3.94311429e-05   0.000139935999 -3.94311426e-05      0.212691515     0.961666738
12.662688            0.207105488     0.962862285   0.000140111299 -3.95338713e-05   0.000140111299  -3.9533871e-05      0.213013824     0.961586399
12.662716            0.207428041     0.962783845   0.000140286842 -3.96368455e-05   0.000140286842 -3.96368453e-05      0.213336309     0.961505895
12.662744            0.207750771     0.962705241   0.000140462629 -3.97400661e-05   0.000140462628 -3.97400659e-05      0.213658971     0.961425226
12.662772            0.208073678     0.962626474   0.000140638659 -3.98435338e-05   0.000140638658 -3.98435336e-05       0.21398181     0.961344392
12.6628              0.208396763     0.962547544   0.000140814933 -3.99472491e-05   0.000140814932 -3.99472488e-05      0.214304826     0.961263393
12.662828            0.208720027     0.962468449   0.000140991451 -4.00512126e-05   0.000140991451 -4.00512124e-05      0.214628019     0.961182228
12.662856            0.209043468     0.962389189   0.000141168214 -4.01554249e-05   0.000141168214 -4.01554247e-05      0.214951389     0.961100898
12.662884            0.209367088     0.962309765   0.000141345222 -4.02598867e-05   0.000141345221 -4.02598865e-05      0.215274936     0.961019401
12.662912            0.209690886     0.962230176   0.000141522475 -4.03645986e-05   0.000141522475 -4.03645984e-05      0.215598661     0.960937738
12.66294             0.210014863     0.962150422   0.000141699974 -4.04695611e-05   0.000141699973 -4.04695609e-05      0.215922564     0.960855909
12.662968            0.210339018     0.962070503   0.000141877718 -4.05747749e-05   0.000141877718 -4.05747747e-05      0.216246645     0.960773913
12.662996            0.210663352     0.961990417   0.000142055709 -4.06802406e-05   0.000142055709 -4.06802403e-05      0.216570903     0.960691749
12.663024            0.210987865     0.961910166   0.000142233946 -4.07859588e-05   0.000142233946 -4.07859585e-05       0.21689534     0.960609418
12.663052            0.211312557     0.961829748   0.000142412431 -4.08919301e-05    0.00014241243 -4.08919299e-05      0.217219955     0.960526919
12.66308             0.211637429     0.961749164   0.000142591162 -4.09981551e-05   0.000142591161 -4.09981549e-05      0.217544749     0.960444253
12.663108             0.21196248     0.961668413    0.00014277014 -4.11046346e-05    0.00014277014 -4.11046344e-05      0.217869721     0.960361418
12.663136             0.21228771     0.961587494   0.000142949367  -4.1211369e-05   0.000142949367 -4.12113688e-05      0.218194871     0.960278414
12.663164            0.212613121     0.961506409   0.000143128842  -4.1318359e-05   0.000143128841 -4.13183588e-05      0.218520201     0.960195242
12.663192            0.212938711     0.961425155   0.000143308565 -4.14256053e-05   0.000143308564 -4.14256051e-05       0.21884571     0.960111901
12.66322             0.213264481     0.961343734   0.000143488536 -4.15331084e-05   0.000143488536 -4.15331082e-05      0.219171397      0.96002839
12.663248            0.213590431     0.961262144   0.000143668757  -4.1640869e-05   0.000143668757 -4.16408688e-05      0.219497264      0.95994471
12.663276            0.213916562     0.961180386   0.000143849227 -4.17488878e-05   0.000143849227 -4.17488876e-05      0.219823311     0.959860859
12.663304            0.214242873      0.96109846   0.000144029947 -4.18571653e-05   0.000144029946  -4.1857165e-05      0.220149537     0.959776839
12.663332            0.214569364     0.961016364   0.000144210916 -4.19657021e-05   0.000144210916 -4.19657019e-05      0.220475943     0.959692648
12.66336             0.214896037     0.960934098   0.000144392136  -4.2074499e-05   0.000144392136 -4.20744988e-05      0.220802528     0.959608286
12.663388             0.21522289     0.960851664   0.000144573607 -4.21835565e-05   0.000144573607 -4.21835563e-05      0.221129294     0.959523753
12.663416            0.215549924     0.960769059   0.000144755329 -4.22928754e-05   0.000144755328 -4.22928751e-05      0.221456239     0.959439049
12.663444             0.21587714     0.960686284   0.000144937301 -4.24024561e-05   0.000144937301 -4.24024559e-05      0.221783366     0.959354174
12.663472            0.216204537     0.960603339   0.000145119526 -4.25122994e-05   0.000145119525 -4.25122992e-05      0.222110672     0.959269126
12.6635              0.216532115     0.960520223   0.000145302002  -4.2622406e-05   0.000145302002 -4.26224057e-05      0.222438159     0.959183906
12.663528            0.216859875     0.960436935   0.000145484731 -4.27327763e-05    0.00014548473 -4.27327761e-05      0.222765827     0.959098514
12.663556            0.217187817     0.960353477   0.000145667711 -4.28434112e-05   0.000145667711  -4.2843411e-05      0.223093676     0.959012949
12.663584            0.217515941     0.960269847   0.000145850945 -4.29543112e-05   0.000145850945  -4.2954311e-05      0.223421706     0.958927211
12.663612            0.217844247     0.960186045   0.000146034432 -4.30654771e-05   0.000146034432 -4.30654768e-05      0.223749917       0.9588413
12.66364             0.218172735     0.960102071   0.000146218173 -4.31769093e-05   0.000146218172 -4.31769091e-05      0.224078309     0.958755215
12.663668            0.218501405     0.960017924   0.000146402167 -4.32886087e-05   0.000146402166 -4.32886084e-05      0.224406883     0.958668957
12.663696            0.218830258     0.959933605   0.000146586415 -4.34005758e-05   0.000146586415 -4.34005755e-05      0.224735638     0.958582524
12.663724            0.219159294     0.959849113   0.000146770918 -4.35128113e-05   0.000146770917  -4.3512811e-05      0.225064575     0.958495916
12.663752            0.219488512     0.959764447   0.000146955675 -4.36253158e-05   0.000146955675 -4.36253156e-05      0.225393695     0.958409134
12.66378             0.219817914     0.959679608   0.000147140688 -4.37380901e-05   0.000147140687 -4.37380898e-05      0.225722996     0.958322177
12.663808            0.220147498     0.959594595   0.000147325955 -4.38511347e-05   0.000147325955 -4.38511345e-05      0.226052479     0.958235045
12.663836            0.220477266     0.959509408   0.000147511479 -4.39644504e-05   0.000147511478 -4.39644501e-05      0.226382145     0.958147737
12.663864            0.220807218     0.959424047   0.000147697258 -4.40780377e-05   0.000147697258 -4.40780375e-05      0.226711993     0.958060253
12.663892            0.221137353      0.95933851   0.000147883294 -4.41918974e-05   0.000147883294 -4.41918972e-05      0.227042024     0.957972593
12.66392             0.221467671     0.959252799   0.000148069587 -4.43060302e-05   0.000148069586 -4.43060299e-05      0.227372238     0.957884756
12.663948            0.221798174     0.959166912   0.000148256136 -4.44204366e-05   0.000148256136 -4.44204364e-05      0.227702635     0.957796743
12.663976             0.22212886      0.95908085   0.000148442943 -4.45351174e-05   0.000148442942 -4.45351172e-05      0.228033214     0.957708552
12.664004            0.222459731     0.958994611   0.000148630007 -4.46500732e-05   0.000148630006  -4.4650073e-05      0.228363977     0.957620185
12.664032            0.222790786     0.958908197   0.000148817329 -4.47653047e-05   0.000148817329 -4.47653045e-05      0.228694924     0.957531639
12.66406             0.223122026     0.958821606   0.000149004909 -4.48808126e-05   0.000149004909 -4.48808124e-05      0.229026054     0.957442916
12.664088             0.22345345     0.958734838   0.000149192748 -4.49965976e-05   0.000149192748 -4.49965973e-05      0.229357367     0.957354014
12.664116            0.223785059     0.958647893   0.000149380846 -4.51126602e-05   0.000149380845   -4.511266e-05      0.229688865     0.957264934
12.664144            0.224116853     0.958560771   0.000149569203 -4.52290013e-05   0.000149569202 -4.52290011e-05      0.230020546     0.957175675
12.664172            0.224448832     0.958473471   0.000149757819 -4.53456214e-05   0.000149757819 -4.53456212e-05      0.230352412     0.957086237
12.6642              0.224780996     0.958385994   0.000149946695 -4.54625214e-05   0.000149946695 -4.54625211e-05      0.230684462      0.95699662
12.664228            0.225113346     0.958298337   0.000150135831 -4.55797017e-05   0.000150135831 -4.55797015e-05      0.231016697     0.956906822
12.664256            0.225445881     0.958210503   0.000150325228 -4.56971632e-05   0.000150325228  -4.5697163e-05      0.231349115     0.956816845
12.664284            0.225778602     0.958122489   0.000150514886 -4.58149065e-05   0.000150514885 -4.58149063e-05      0.231681719     0.956726687
12.664312            0.226111508     0.958034297   0.000150704804 -4.59329324e-05   0.000150704804 -4.59329321e-05      0.232014508     0.956636349
12.66434             0.226444601     0.957945924   0.000150894984 -4.60512414e-05   0.000150894984 -4.60512412e-05      0.232347482      0.95654583
12.664368             0.22677788     0.957857373   0.000151085426 -4.61698343e-05   0.000151085425 -4.61698341e-05       0.23268064      0.95645513
12.664396            0.227111345     0.957768641   0.000151276129 -4.62887118e-05   0.000151276129 -4.62887116e-05      0.233013985     0.956364248
12.664424            0.227444997     0.957679728   0.000151467095 -4.64078746e-05   0.000151467095 -4.64078743e-05      0.233347514     0.956273184
12.664452            0.227778835     0.957590635   0.000151658324 -4.65273233e-05   0.000151658323 -4.65273231e-05       0.23368123     0.956181938
12.66448              0.22811286     0.957501361   0.000151849815 -4.66470587e-05   0.000151849815 -4.66470585e-05      0.234015131      0.95609051
12.664508            0.228447072     0.957411906    0.00015204157 -4.67670815e-05    0.00015204157 -4.67670813e-05      0.234349218     0.955998899
12.664536            0.228781471     0.957322269   0.000152233588 -4.68873923e-05   0.000152233588 -4.68873921e-05      0.234683491     0.955907105
12.664564            0.229116058     0.957232451   0.000152425871 -4.70079919e-05    0.00015242587 -4.70079917e-05       0.23501795     0.955815128
12.664592            0.229450831      0.95714245   0.000152618417  -4.7128881e-05   0.000152618417 -4.71288808e-05      0.235352596     0.955722967
12.66462             0.229785792     0.957052267   0.000152811228 -4.72500603e-05   0.000152811228 -4.72500601e-05      0.235687428     0.955630622
12.664648            0.230120941     0.956961901   0.000153004304 -4.73715305e-05   0.000153004304 -4.73715303e-05      0.236022447     0.955538092
12.664676            0.230456278     0.956871351   0.000153197645 -4.74932923e-05   0.000153197645 -4.74932921e-05      0.236357653     0.955445378
12.664704            0.230791802     0.956780619   0.000153391252 -4.76153464e-05   0.000153391251 -4.76153462e-05      0.236693046      0.95535248
12.664732            0.231127515     0.956689702   0.000153585124 -4.77376935e-05   0.000153585124 -4.77376933e-05      0.237028626     0.955259396
12.66476             0.231463416     0.956598602   0.000153779263 -4.78603344e-05   0.000153779262 -4.78603341e-05      0.237364393     0.955166126
12.664788            0.231799506     0.956507318   0.000153973668 -4.79832697e-05   0.000153973667 -4.79832695e-05      0.237700348     0.955072671
12.664816            0.232135784     0.956415848   0.000154168339 -4.81065002e-05   0.000154168339 -4.81064999e-05       0.23803649      0.95497903
12.664844            0.232472251     0.956324194   0.000154363278 -4.82300266e-05   0.000154363278 -4.82300263e-05      0.238372821     0.954885202
12.664872            0.232808907     0.956232354   0.000154558484 -4.83538496e-05   0.000154558484 -4.83538493e-05      0.238709339     0.954791187
12.6649              0.233145752     0.956140329   0.000154753958 -4.84779699e-05   0.000154753958 -4.84779697e-05      0.239046045     0.954696986
12.664928            0.233482786     0.956048118     0.0001549497 -4.86023883e-05     0.0001549497 -4.86023881e-05      0.239382939     0.954602597
12.664956            0.233820009     0.955955721    0.00015514571 -4.87271055e-05    0.00015514571 -4.87271053e-05      0.239720022      0.95450802
12.664984            0.234157423     0.955863138   0.000155341989 -4.88521222e-05   0.000155341989  -4.8852122e-05      0.240057293     0.954413256
12.665012            0.234495025     0.955770367   0.000155538537 -4.89774392e-05   0.000155538536  -4.8977439e-05      0.240394753     0.954318303
12.66504             0.234832818      0.95567741   0.000155735354 -4.91030572e-05   0.000155735353 -4.91030569e-05      0.240732401     0.954223161
12.665068            0.235170801     0.955584265    0.00015593244 -4.92289768e-05    0.00015593244 -4.92289766e-05      0.241070239      0.95412783
12.665096            0.235508973     0.955490932   0.000156129797  -4.9355199e-05   0.000156129797 -4.93551987e-05      0.241408266     0.954032311
12.665124            0.235847336     0.955397411   0.000156327424 -4.94817243e-05   0.000156327423  -4.9481724e-05      0.241746482     0.953936601
12.665152             0.23618589     0.955303701   0.000156525321 -4.96085535e-05   0.000156525321 -4.96085533e-05      0.242084887     0.953840702
12.66518             0.236524634     0.955209803   0.000156723489 -4.97356874e-05   0.000156723489 -4.97356871e-05      0.242423482     0.953744612
12.665208            0.236863569     0.955115716   0.000156921928 -4.98631267e-05   0.000156921928 -4.98631265e-05      0.242762267     0.953648332
12.665236            0.237202695      0.95502144   0.000157120639 -4.99908721e-05   0.000157120639 -4.99908719e-05      0.243101242     0.953551861
12.665264            0.237542012     0.954926974   0.000157319621 -5.01189245e-05   0.000157319621 -5.01189243e-05      0.243440407     0.953455199
12.665292             0.23788152     0.954832318   0.000157518876 -5.02472845e-05   0.000157518876 -5.02472843e-05      0.243779762     0.953358346
12.66532              0.23822122     0.954737471   0.000157718403 -5.03759529e-05   0.000157718403 -5.03759526e-05      0.244119307       0.9532613
12.665348            0.238561111     0.954642434   0.000157918203 -5.05049304e-05   0.000157918202 -5.05049302e-05      0.244459043     0.953164063
12.665376            0.238901194     0.954547206   0.000158118275 -5.06342179e-05   0.000158118275 -5.06342176e-05      0.244798969     0.953066632
12.665404            0.239241469     0.954451787   0.000158318622 -5.07638159e-05   0.000158318621 -5.07638157e-05      0.245139087      0.95296901