! TOUCHSTONE file generated by CST MICROWAVE STUDIO
! Date and time: Wed Jul 31 12:16:33 2024
! Project name: WaveGuide_BPF-Ver4.1_U-shape_Ku_T3_C4_CWA_2.cst
! Parameters = {cavity_h=16; cavity_l0=10; cavity_l1=15.1814; cavity_l2=16.877; cavity_l3=17.1313; cavity_l4=17.2266; cavity_l5=17.1348; cavity_l6=17.6271; cavity_r=2.5; cavity_screw_l=0.5; cavity_screw_r=1.5; cavity_w=8; iris_h00=0; iris_h01=8.8243; iris_h112=0; iris_h12=5.5989; iris_h211=3.6547; iris_h23=5.1996; iris_h310=3.9691; iris_h34=5.079; iris_h45=4.9285; iris_h49=4.6182; iris_h56=4.7884; iris_h58=4.4505; iris_h67=6.5735; iris_rx=0.1; iris_screw_l=0.5; iris_screw_r=1.5; iris_shift00=0; iris_shift112=0; iris_shift211=3.5; iris_shift310=0; iris_shift49=0; iris_shift58=3.5; iris_shift67=3.5; iris_tx=4.5; iris_tz=4.5; iris_w00=0; iris_w112=0; iris_w211=4; iris_w310=3.9691; iris_w49=4.6182; iris_w58=4; iris_w67=4; mesh_cavity=5; mesh_iris=7; mesh_screw=7; order=12; reset_all=0; sigma=4.8e+07}
! Header version: 2018
! Port assignment regex: !\s*Touchstone port\s*([0-9]+)\s*=\s*(CST MWS port|CST DS port)\s*([0-9]+|Zmin|Zmax)\s*\(\"(.*)\"\)(\s*mode\s*([0-9]+))?.*
! Touchstone port assignment:
! Touchstone port 1 = CST MWS port 1 ("")
! Touchstone port 2 = CST MWS port 2 ("")
# GHz S RI R 50
12.66                0.293098048     0.936692031   0.000294589574 -0.000118243789   0.000294589573 -0.000118243789      0.298094999       0.9351559
12.660028            0.293488067     0.936555288   0.000295048272 -0.000118583373   0.000295048272 -0.000118583373      0.298484282     0.935017118
12.660056             0.29387834     0.936418261   0.000295507789 -0.000118923973   0.000295507788 -0.000118923973      0.298873913     0.934878021
12.660084            0.294268867     0.936280949   0.000295968131 -0.000119265588    0.00029596813 -0.000119265588      0.299263852      0.93473862
12.660112            0.294659647     0.936143352   0.000296429303 -0.000119608214   0.000296429302 -0.000119608214      0.299654055     0.934598928
12.66014             0.295050681     0.936005469   0.000296891313  -0.00011995185   0.000296891312  -0.00011995185      0.300044484     0.934458958
12.660168            0.295441968     0.935867301   0.000297354161 -0.000120296499    0.00029735416 -0.000120296498      0.300435137     0.934318709
12.660196             0.29583351     0.935728845   0.000297817846 -0.000120642167   0.000297817845 -0.000120642167      0.300826043     0.934178172
12.660224            0.296225306     0.935590102    0.00029828237 -0.000120988859    0.00029828237 -0.000120988858      0.301217201     0.934037347
12.660252            0.296617357     0.935451071   0.000298747735 -0.000121336576   0.000298747734 -0.000121336576      0.301608613     0.933896231
12.66028             0.297009663     0.935311751   0.000299213942 -0.000121685324   0.000299213941 -0.000121685324      0.302000278     0.933754826
12.660308            0.297402224     0.935172142   0.000299680992 -0.000122035105   0.000299680992 -0.000122035105      0.302392196     0.933613131
12.660336             0.29779504     0.935032243   0.000300148888 -0.000122385922   0.000300148887 -0.000122385922      0.302784369     0.933471144
12.660364            0.298188112     0.934892054   0.000300617631  -0.00012273778    0.00030061763 -0.000122737779      0.303176795     0.933328866
12.660392             0.29858144     0.934751575   0.000301087222  -0.00012309068   0.000301087221  -0.00012309068      0.303569476     0.933186295
12.66042             0.298975024     0.934610803   0.000301557664 -0.000123444628   0.000301557663 -0.000123444627      0.303962411     0.933043432
12.660448            0.299368864      0.93446974   0.000302028957 -0.000123799625   0.000302028956 -0.000123799625      0.304355601     0.932900275
12.660476            0.299762962     0.934328384   0.000302501104 -0.000124155676   0.000302501103 -0.000124155676      0.304749046     0.932756824
12.660504            0.300157316     0.934186735   0.000302974105 -0.000124512784   0.000302974104 -0.000124512783      0.305142746     0.932613079
12.660532            0.300551927     0.934044792   0.000303447964 -0.000124870952   0.000303447963 -0.000124870952      0.305536702     0.932469039
12.66056             0.300946796     0.933902554   0.000303922681 -0.000125230184    0.00030392268 -0.000125230184      0.305930914     0.932324702
12.660588            0.301341922     0.933760021   0.000304398258 -0.000125590484   0.000304398257 -0.000125590484      0.306325382      0.93218007
12.660616            0.301737307     0.933617193   0.000304874696 -0.000125951855   0.000304874695 -0.000125951854      0.306720106      0.93203514
12.660644            0.302132949     0.933474069   0.000305351998   -0.0001263143   0.000305351997 -0.000126314299      0.307115086     0.931889913
12.660672             0.30252885     0.933330648   0.000305830165 -0.000126677822   0.000305830164 -0.000126677822      0.307510323     0.931744387
12.6607               0.30292501     0.933186929   0.000306309198 -0.000127042427   0.000306309197 -0.000127042426      0.307905818     0.931598563
12.660728            0.303321428     0.933042912     0.0003067891 -0.000127408116   0.000306789099 -0.000127408116      0.308301569      0.93145244
12.660756            0.303718106     0.932898597   0.000307269871 -0.000127774894    0.00030726987 -0.000127774893      0.308697578     0.931306016
12.660784            0.304115043     0.932753982   0.000307751514 -0.000128142764   0.000307751513 -0.000128142763      0.309093845     0.931159292
12.660812             0.30451224     0.932609068   0.000308234031 -0.000128511729    0.00030823403 -0.000128511729       0.30949037     0.931012267
12.66084             0.304909697     0.932463853   0.000308717422 -0.000128881794   0.000308717421 -0.000128881794      0.309887153      0.93086494
12.660868            0.305307414     0.932318337    0.00030920169 -0.000129252962   0.000309201689 -0.000129252962      0.310284195     0.930717311
12.660896            0.305705391      0.93217252   0.000309686836 -0.000129625236   0.000309686835 -0.000129625236      0.310681495     0.930569378
12.660924             0.30610363       0.9320264   0.000310172862 -0.000129998621   0.000310172861 -0.000129998621      0.311079055     0.930421142
12.660952            0.306502129     0.931879977    0.00031065977 -0.000130373119   0.000310659769 -0.000130373119      0.311476874     0.930272602
12.66098             0.306900889     0.931733251   0.000311147561 -0.000130748735    0.00031114756 -0.000130748735      0.311874952     0.930123757
12.661008            0.307299911     0.931586221   0.000311636237 -0.000131125472   0.000311636236 -0.000131125472       0.31227329     0.929974606
12.661036            0.307699195     0.931438885     0.0003121258 -0.000131503334   0.000312125799 -0.000131503333      0.312671888     0.929825149
12.661064             0.30809874     0.931291245   0.000312616251 -0.000131882324    0.00031261625 -0.000131882324      0.313070746     0.929675386
12.661092            0.308498548     0.931143299   0.000313107592 -0.000132262447   0.000313107591 -0.000132262446      0.313469865     0.929525315
12.66112             0.308898618     0.930995046   0.000313599825 -0.000132643705   0.000313599824 -0.000132643705      0.313869245     0.929374936
12.661148            0.309298951     0.930846485   0.000314092951 -0.000133026103    0.00031409295 -0.000133026103      0.314268885     0.929224249
12.661176            0.309699547     0.930697617   0.000314586973 -0.000133409645   0.000314586972 -0.000133409645      0.314668787     0.929073252
12.661204            0.310100407      0.93054844   0.000315081891 -0.000133794334    0.00031508189 -0.000133794334       0.31506895     0.928921946
12.661232             0.31050153     0.930398955   0.000315577708 -0.000134180174   0.000315577707 -0.000134180174      0.315469376     0.928770329
12.66126             0.310902916     0.930249159   0.000316074425 -0.000134567169   0.000316074424 -0.000134567169      0.315870063     0.928618401
12.661288            0.311304567     0.930099053   0.000316572044 -0.000134955323   0.000316572043 -0.000134955322      0.316271012     0.928466161
12.661316            0.311706482     0.929948636   0.000317070567 -0.000135344639   0.000317070566 -0.000135344638      0.316672224     0.928313609
12.661344            0.312108661     0.929797908   0.000317569995 -0.000135735121   0.000317569994 -0.000135735121      0.317073699     0.928160744
12.661372            0.312511106     0.929646867    0.00031807033 -0.000136126773   0.000318070329 -0.000136126773      0.317475437     0.928007565
12.6614              0.312913815     0.929495513   0.000318571574   -0.0001365196   0.000318571574   -0.0001365196      0.317877438     0.927854072
12.661428             0.31331679     0.929343846   0.000319073729 -0.000136913604   0.000319073728 -0.000136913604      0.318279703     0.927700264
12.661456             0.31372003     0.929191864   0.000319576796 -0.000137308791   0.000319576795  -0.00013730879      0.318682231     0.927546141
12.661484            0.314123536     0.929039568   0.000320080777 -0.000137705163   0.000320080776 -0.000137705162      0.319085024     0.927391701
12.661512            0.314527308     0.928886956   0.000320585674 -0.000138102724   0.000320585673 -0.000138102724      0.319488081     0.927236944
12.66154             0.314931347     0.928734028   0.000321091488  -0.00013850148   0.000321091487 -0.000138501479      0.319891402      0.92708187
12.661568            0.315335652     0.928580783   0.000321598222 -0.000138901432   0.000321598221 -0.000138901432      0.320294989     0.926926478
12.661596            0.315740224      0.92842722   0.000322105876 -0.000139302587   0.000322105875 -0.000139302586       0.32069884     0.926770766
12.661624            0.316145063      0.92827334   0.000322614453 -0.000139704947   0.000322614452 -0.000139704946      0.321102957     0.926614736
12.661652             0.31655017      0.92811914   0.000323123955 -0.000140108516   0.000323123954 -0.000140108516      0.321507339     0.926458385
12.66168             0.316955544     0.927964622   0.000323634382 -0.000140513299   0.000323634381 -0.000140513298      0.321911987     0.926301713
12.661708            0.317361187     0.927809783   0.000324145738 -0.000140919299   0.000324145737 -0.000140919299      0.322316901      0.92614472
12.661736            0.317767097     0.927654623   0.000324658023 -0.000141326521   0.000324658022 -0.000141326521      0.322722082     0.925987405
12.661764            0.318173276     0.927499142    0.00032517124 -0.000141734969   0.000325171239 -0.000141734968      0.323127529     0.925829767
12.661792            0.318579723     0.927343339    0.00032568539 -0.000142144646   0.000325685389 -0.000142144646      0.323533243     0.925671805
12.66182              0.31898644     0.927187213   0.000326200475 -0.000142555557   0.000326200474 -0.000142555557      0.323939225      0.92551352
12.661848            0.319393425     0.927030764   0.000326716497 -0.000142967706   0.000326716496 -0.000142967706      0.324345473     0.925354909
12.661876            0.319800681     0.926873991   0.000327233457 -0.000143381097   0.000327233456 -0.000143381097      0.324751989     0.925195974
12.661904            0.320208206     0.926716893   0.000327751357 -0.000143795735   0.000327751357 -0.000143795734      0.325158774     0.925036712
12.661932            0.320616001     0.926559469     0.0003282702 -0.000144211622   0.000328270199 -0.000144211622      0.325565826     0.924877123
12.66196             0.321024066      0.92640172   0.000328789986 -0.000144628764   0.000328789985 -0.000144628764      0.325973147     0.924717207
12.661988            0.321432402     0.926243644   0.000329310718 -0.000145047165   0.000329310717 -0.000145047164      0.326380736     0.924556963
12.662016            0.321841008      0.92608524   0.000329832397 -0.000145466828   0.000329832396 -0.000145466828      0.326788595     0.924396389
12.662044            0.322249886     0.925926508   0.000330355026 -0.000145887759   0.000330355025 -0.000145887759      0.327196722     0.924235487
12.662072            0.322659035     0.925767447   0.000330878605 -0.000146309961   0.000330878604  -0.00014630996      0.327605119     0.924074254
12.6621              0.323068455     0.925608057   0.000331403137 -0.000146733438   0.000331403136 -0.000146733438      0.328013786      0.92391269
12.662128            0.323478148     0.925448337   0.000331928623 -0.000147158195   0.000331928622 -0.000147158195      0.328422723     0.923750795
12.662156            0.323888112     0.925288286   0.000332455066 -0.000147584237   0.000332455065 -0.000147584236       0.32883193     0.923588568
12.662184            0.324298349     0.925127903   0.000332982467 -0.000148011566   0.000332982466 -0.000148011566      0.329241407     0.923426007
12.662212            0.324708859     0.924967188   0.000333510827 -0.000148440188   0.000333510826 -0.000148440188      0.329651155     0.923263113
12.66224             0.325119641      0.92480614   0.000334040149 -0.000148870107   0.000334040149 -0.000148870107      0.330061174     0.923099885
12.662268            0.325530697     0.924644758   0.000334570435 -0.000149301328   0.000334570434 -0.000149301328      0.330471465     0.922936322
12.662296            0.325942026     0.924483042   0.000335101686 -0.000149733854   0.000335101685 -0.000149733854      0.330882027     0.922772423
12.662324            0.326353629     0.924320992   0.000335633904  -0.00015016769   0.000335633903  -0.00015016769      0.331292861     0.922608187
12.662352            0.326765506     0.924158605   0.000336167091 -0.000150602841    0.00033616709 -0.000150602841      0.331703967     0.922443615
12.66238             0.327177657     0.923995882   0.000336701249  -0.00015103931   0.000336701248  -0.00015103931      0.332115345     0.922278704
12.662408            0.327590083     0.923832822   0.000337236379 -0.000151477103   0.000337236378 -0.000151477103      0.332526996     0.922113455
12.662436            0.328002783     0.923669424   0.000337772483 -0.000151916223   0.000337772482 -0.000151916223      0.332938919     0.921947867
12.662464            0.328415758     0.923505687   0.000338309564 -0.000152356676   0.000338309563 -0.000152356676      0.333351116     0.921781939
12.662492            0.328829009     0.923341611   0.000338847622 -0.000152798465   0.000338847622 -0.000152798465      0.333763586     0.921615671
12.66252             0.329242536     0.923177196   0.000339386661 -0.000153241595    0.00033938666 -0.000153241595       0.33417633     0.921449061
12.662548            0.329656338     0.923012439   0.000339926681 -0.000153686071    0.00033992668  -0.00015368607      0.334589348     0.921282109
12.662576            0.330070416     0.922847341   0.000340467684 -0.000154131897   0.000340467683 -0.000154131896      0.335002639     0.921114814
12.662604            0.330484771     0.922681901   0.000341009672 -0.000154579077   0.000341009671 -0.000154579077      0.335416206     0.920947176
12.662632            0.330899402     0.922516119   0.000341552648 -0.000155027617   0.000341552647 -0.000155027616      0.335830046     0.920779193
12.66266              0.33131431     0.922349992   0.000342096612  -0.00015547752   0.000342096612  -0.00015547752      0.336244162     0.920610866
12.662688            0.331729496     0.922183522   0.000342641568 -0.000155928792   0.000342641567 -0.000155928791      0.336658553     0.920442193
12.662716            0.332144958     0.922016706   0.000343187516 -0.000156381436   0.000343187515 -0.000156381436       0.33707322     0.920273173
12.662744            0.332560699     0.921849545   0.000343734458 -0.000156835459   0.000343734457 -0.000156835458      0.337488162     0.920103807
12.662772            0.332976718     0.921682037   0.000344282396 -0.000157290863   0.000344282396 -0.000157290863       0.33790338     0.919934093
12.6628              0.333393015     0.921514183   0.000344831333 -0.000157747654   0.000344831332 -0.000157747654      0.338318875      0.91976403
12.662828             0.33380959      0.92134598    0.00034538127 -0.000158205837   0.000345381269 -0.000158205837      0.338734646     0.919593617
12.662856            0.334226444     0.921177428   0.000345932208 -0.000158665416   0.000345932207 -0.000158665416      0.339150694     0.919422855
12.662884            0.334643577     0.921008528    0.00034648415 -0.000159126396   0.000346484149 -0.000159126396      0.339567019     0.919251742
12.662912             0.33506099     0.920839277   0.000347037098 -0.000159588782   0.000347037097 -0.000159588781      0.339983621     0.919080278
12.66294             0.335478682     0.920669675   0.000347591053 -0.000160052578   0.000347591052 -0.000160052577      0.340400501     0.918908461
12.662968            0.335896654     0.920499722   0.000348146017 -0.000160517789   0.000348146016 -0.000160517788      0.340817659     0.918736291
12.662996            0.336314907     0.920329416   0.000348701993  -0.00016098442   0.000348701992 -0.000160984419      0.341235094     0.918563768
12.663024             0.33673344     0.920158757   0.000349258981 -0.000161452476    0.00034925898 -0.000161452475      0.341652809      0.91839089
12.663052            0.337152253     0.919987745   0.000349816984 -0.000161921961   0.000349816983  -0.00016192196      0.342070801     0.918217657
12.66308             0.337571347     0.919816378   0.000350376004 -0.000162392881   0.000350376003  -0.00016239288      0.342489073     0.918044068
12.663108            0.337990723     0.919644655   0.000350936043 -0.000162865239   0.000350936042 -0.000162865239      0.342907624     0.917870122
12.663136             0.33841038     0.919472577   0.000351497102 -0.000163339042   0.000351497101 -0.000163339042      0.343326455     0.917695819
12.663164            0.338830319     0.919300141   0.000352059183 -0.000163814294   0.000352059182 -0.000163814294      0.343745565     0.917521157
12.663192             0.33925054     0.919127348   0.000352622288    -0.000164291   0.000352622287    -0.000164291      0.344164955     0.917346136
12.66322             0.339671043     0.918954197    0.00035318642 -0.000164769165   0.000353186419 -0.000164769165      0.344584625     0.917170756
12.663248            0.340091829     0.918780686   0.000353751579 -0.000165248794   0.000353751578 -0.000165248793      0.345004576     0.916995015
12.663276            0.340512898     0.918606816   0.000354317769 -0.000165729891   0.000354317768  -0.00016572989      0.345424808     0.916818913
12.663304             0.34093425     0.918432585    0.00035488499 -0.000166212462   0.000354884989 -0.000166212461      0.345845321     0.916642449
12.663332            0.341355886     0.918257992   0.000355453245 -0.000166696511   0.000355453244 -0.000166696511      0.346266115     0.916465622
12.66336             0.341777805     0.918083038   0.000356022535 -0.000167182044   0.000356022534 -0.000167182044      0.346687191     0.916288432
12.663388            0.342200008      0.91790772   0.000356592862 -0.000167669066   0.000356592861 -0.000167669066      0.347108548     0.916110877
12.663416            0.342622495     0.917732039   0.000357164229 -0.000168157582   0.000357164228 -0.000168157582      0.347530188     0.915932957
12.663444            0.343045267     0.917555993   0.000357736638 -0.000168647597   0.000357736637 -0.000168647597       0.34795211     0.915754671
12.663472            0.343468324     0.917379582   0.000358310089 -0.000169139116   0.000358310088 -0.000169139115      0.348374315     0.915576018
12.6635              0.343891665     0.917202804   0.000358884585 -0.000169632143   0.000358884584 -0.000169632143      0.348796803     0.915396998
12.663528            0.344315293      0.91702566   0.000359460128 -0.000170126685   0.000359460127 -0.000170126685      0.349219574      0.91521761
12.663556            0.344739205     0.916848149    0.00036003672 -0.000170622747   0.000360036719 -0.000170622746      0.349642628     0.915037852
12.663584            0.345163404     0.916670268   0.000360614363 -0.000171120333   0.000360614362 -0.000171120332      0.350065966     0.914857725
12.663612            0.345587889     0.916492019   0.000361193058 -0.000171619448   0.000361193057 -0.000171619448      0.350489588     0.914677227
12.66364              0.34601266       0.9163134   0.000361772808 -0.000172120099   0.000361772807 -0.000172120098      0.350913495     0.914496358
12.663668            0.346437718     0.916134409   0.000362353614  -0.00017262229   0.000362353614 -0.000172622289      0.351337686     0.914315116
12.663696            0.346863063     0.915955048   0.000362935479 -0.000173126026   0.000362935478 -0.000173126025      0.351762162     0.914133502
12.663724            0.347288695     0.915775313   0.000363518404 -0.000173631313   0.000363518403 -0.000173631312      0.352186923     0.913951514
12.663752            0.347714615     0.915595206   0.000364102391 -0.000174138155   0.000364102391 -0.000174138155      0.352611969     0.913769151
12.66378             0.348140822     0.915414724   0.000364687443  -0.00017464656   0.000364687442 -0.000174646559      0.353037302     0.913586412
12.663808            0.348567318     0.915233868    0.00036527356  -0.00017515653   0.000365273559  -0.00017515653      0.353462919     0.913403298
12.663836            0.348994102     0.915052636   0.000365860746 -0.000175668073   0.000365860745 -0.000175668073      0.353888824     0.913219806
12.663864            0.349421175     0.914871028   0.000366449001 -0.000176181193      0.000366449 -0.000176181193      0.354315014     0.913035937
12.663892            0.349848537     0.914689043   0.000367038328 -0.000176695896   0.000367038327 -0.000176695896      0.354741492     0.912851689
12.66392             0.350276188     0.914506679   0.000367628729 -0.000177212187   0.000367628728 -0.000177212187      0.355168256     0.912667062
12.663948            0.350704128     0.914323937   0.000368220206 -0.000177730072   0.000368220205 -0.000177730071      0.355595308     0.912482054
12.663976            0.351132359     0.914140814    0.00036881276 -0.000178249555   0.000368812759 -0.000178249555      0.356022647     0.912296665
12.664004            0.351560879     0.913957312   0.000369406394 -0.000178770643   0.000369406393 -0.000178770643      0.356450274     0.912110895
12.664032            0.351989689     0.913773428   0.000370001109 -0.000179293341   0.000370001109 -0.000179293341      0.356878189     0.911924741
12.66406             0.352418791     0.913589162   0.000370596908 -0.000179817655   0.000370596907 -0.000179817655      0.357306393     0.911738204
12.664088            0.352848183     0.913404513   0.000371193793  -0.00018034359   0.000371193792 -0.000180343589      0.357734885     0.911551283
12.664116            0.353277866      0.91321948   0.000371791764 -0.000180871151   0.000371791763 -0.000180871151      0.358163666     0.911363976
12.664144            0.353707841     0.913034062   0.000372390825 -0.000181400345   0.000372390824 -0.000181400344      0.358592736     0.911176284
12.664172            0.354138107     0.912848259   0.000372990978 -0.000181931176   0.000372990977 -0.000181931175      0.359022096     0.910988204
12.6642              0.354568666      0.91266207   0.000373592223 -0.000182463651   0.000373592222  -0.00018246365      0.359451745     0.910799737
12.664228            0.354999517     0.912475494   0.000374194564 -0.000182997774   0.000374194563 -0.000182997774      0.359881685     0.910610881
12.664256             0.35543066     0.912288529   0.000374798001 -0.000183533553      0.000374798 -0.000183533552      0.360311915     0.910421636
12.664284            0.355862096     0.912101176   0.000375402538 -0.000184070992   0.000375402537 -0.000184070991      0.360742435     0.910232001
12.664312            0.356293825     0.911913433   0.000376008176 -0.000184610097   0.000376008175 -0.000184610096      0.361173246     0.910041975
12.66434             0.356725848     0.911725299   0.000376614917 -0.000185150873   0.000376614916 -0.000185150873      0.361604349     0.909851556
12.664368            0.357158165     0.911536775   0.000377222763 -0.000185693328   0.000377222762 -0.000185693328      0.362035742     0.909660745
12.664396            0.357590775     0.911347857   0.000377831715 -0.000186237466   0.000377831714 -0.000186237465      0.362467428      0.90946954
12.664424             0.35802368     0.911158547   0.000378441777 -0.000186783293   0.000378441776 -0.000186783292      0.362899405     0.909277941
12.664452            0.358456879     0.910968843   0.000379052949 -0.000187330815   0.000379052948 -0.000187330814      0.363331674     0.909085947
12.66448             0.358890373     0.910778744   0.000379665234 -0.000187880037   0.000379665233 -0.000187880037      0.363764236     0.908893556
12.664508            0.359324162      0.91058825   0.000380278634 -0.000188430967   0.000380278633 -0.000188430967      0.364197091     0.908700768
12.664536            0.359758246     0.910397358   0.000380893151 -0.000188983609    0.00038089315 -0.000188983609      0.364630239     0.908507582
12.664564            0.360192626      0.91020607   0.000381508787 -0.000189537969   0.000381508786 -0.000189537969       0.36506368     0.908313998
12.664592            0.360627302     0.910014383   0.000382125543 -0.000190094054   0.000382125542 -0.000190094054      0.365497415     0.908120013
12.66462             0.361062275     0.909822297   0.000382743422  -0.00019065187   0.000382743421 -0.000190651869      0.365931443     0.907925629
12.664648            0.361497544     0.909629811   0.000383362425 -0.000191211421   0.000383362424 -0.000191211421      0.366365766     0.907730842
12.664676            0.361933109     0.909436924   0.000383982555 -0.000191772715   0.000383982554 -0.000191772715      0.366800383     0.907535654
12.664704            0.362368972     0.909243636   0.000384603814 -0.000192335758   0.000384603813 -0.000192335757      0.367235295     0.907340062
12.664732            0.362805132     0.909049945   0.000385226203 -0.000192900554   0.000385226202 -0.000192900554      0.367670502     0.907144066
12.66476             0.363241589      0.90885585   0.000385849725 -0.000193467112   0.000385849724 -0.000193467111      0.368106004     0.906947666
12.664788            0.363678345     0.908661351   0.000386474382 -0.000194035435   0.000386474381 -0.000194035435      0.368541801     0.906750859
12.664816            0.364115399     0.908466446   0.000387100175 -0.000194605532   0.000387100174 -0.000194605531      0.368977895     0.906553646
12.664844            0.364552751     0.908271135   0.000387727106 -0.000195177407   0.000387727105 -0.000195177407      0.369414284     0.906356025
12.664872            0.364990402     0.908075418   0.000388355178 -0.000195751067   0.000388355178 -0.000195751067       0.36985097     0.906157996
12.6649              0.365428352     0.907879292   0.000388984393 -0.000196326519   0.000388984392 -0.000196326518      0.370287952     0.905959557
12.664928            0.365866602     0.907682757   0.000389614752 -0.000196903767   0.000389614751 -0.000196903767      0.370725232     0.905760708
12.664956            0.366305151     0.907485813   0.000390246258  -0.00019748282   0.000390246257 -0.000197482819      0.371162808     0.905561448
12.664984               0.366744     0.907288457   0.000390878912 -0.000198063682   0.000390878911 -0.000198063682      0.371600682     0.905361776
12.665012            0.367183149     0.907090691   0.000391512717 -0.000198646361   0.000391512716  -0.00019864636      0.372038854     0.905161691
12.66504             0.367622599     0.906892511   0.000392147674 -0.000199230861   0.000392147673 -0.000199230861      0.372477324     0.904961192
12.665068            0.368062349     0.906693918   0.000392783786 -0.000199817191   0.000392783785 -0.000199817191      0.372916092     0.904760278
12.665096            0.368502401     0.906494911   0.000393421054 -0.000200405356   0.000393421053 -0.000200405355      0.373355159     0.904558948
12.665124            0.368942753     0.906295489    0.00039405948 -0.000200995362   0.000394059479 -0.000200995362      0.373794525     0.904357201
12.665152            0.369383408      0.90609565   0.000394699067 -0.000201587216   0.000394699066 -0.000201587216      0.374234189     0.904155037
12.66518             0.369824364     0.905895395   0.000395339817 -0.000202180925   0.000395339816 -0.000202180925      0.374674153     0.903952455
12.665208            0.370265623     0.905694721   0.000395981731 -0.000202776495    0.00039598173 -0.000202776494      0.375114417     0.903749453
12.665236            0.370707184     0.905493629   0.000396624812 -0.000203373931   0.000396624811 -0.000203373931      0.375554981     0.903546031
12.665264            0.371149047     0.905292116   0.000397269061 -0.000203973242    0.00039726906 -0.000203973241      0.375995845     0.903342187
12.665292            0.371591214     0.905090183   0.000397914481 -0.000204574433    0.00039791448 -0.000204574432       0.37643701     0.903137921
12.66532             0.372033684     0.904887828   0.000398561073  -0.00020517751   0.000398561072  -0.00020517751      0.376878475     0.902933232
12.665348            0.372476458      0.90468505    0.00039920884 -0.000205782481   0.000399208839 -0.000205782481      0.377320242     0.902728119
12.665376            0.372919536     0.904481849   0.000399857783 -0.000206389353   0.000399857782 -0.000206389352       0.37776231     0.902522581
12.665404            0.373362918     0.904278223   0.000400507905 -0.000206998131   0.000400507904  -0.00020699813       0.37820468     0.902316617