! TOUCHSTONE file generated by CST MICROWAVE STUDIO
! Date and time: Wed Jul 31 12:31:57 2024
! Project name: WaveGuide_BPF-Ver4.1_U-shape_Ku_T3_C4_CWA_2.cst
! Parameters = {cavity_h=16; cavity_l0=10; cavity_l1=15.1845; cavity_l2=16.8523; cavity_l3=17.0874; cavity_l4=17.2289; cavity_l5=17.1282; cavity_l6=17.5655; cavity_r=2.5; cavity_screw_l=0.5; cavity_screw_r=1.5; cavity_w=8; iris_h00=0; iris_h01=8.8054; iris_h112=0; iris_h12=5.5916; iris_h211=3.6618; iris_h23=5.2102; iris_h310=3.9713; iris_h34=5.0727; iris_h45=4.9334; iris_h49=4.6225; iris_h56=4.8048; iris_h58=4.4302; iris_h67=6.5663; iris_rx=0.1; iris_screw_l=0.5; iris_screw_r=1.5; iris_shift00=0; iris_shift112=0; iris_shift211=3.5; iris_shift310=0; iris_shift49=0; iris_shift58=3.5; iris_shift67=3.5; iris_tx=4.5; iris_tz=4.5; iris_w00=0; iris_w112=0; iris_w211=4; iris_w310=3.9713; iris_w49=4.6225; iris_w58=4; iris_w67=4; mesh_cavity=5; mesh_iris=7; mesh_screw=7; order=12; reset_all=0; sigma=4.8e+07}
! Header version: 2018
! Port assignment regex: !\s*Touchstone port\s*([0-9]+)\s*=\s*(CST MWS port|CST DS port)\s*([0-9]+|Zmin|Zmax)\s*\(\"(.*)\"\)(\s*mode\s*([0-9]+))?.*
! Touchstone port assignment:
! Touchstone port 1 = CST MWS port 1 ("")
! Touchstone port 2 = CST MWS port 2 ("")
# GHz S RI R 50
12.66                 0.22739116     0.957114382   0.000211559472 -6.64974935e-05   0.000211559471 -6.64974929e-05      0.231424545     0.956112422
12.660028            0.227737677     0.957021196   0.000211868116 -6.66857688e-05   0.000211868115 -6.66857682e-05      0.231772447     0.956017266
12.660056            0.228084477     0.956927794   0.000212177286 -6.68745722e-05   0.000212177285 -6.68745716e-05      0.232120548     0.955921912
12.660084            0.228431526     0.956834184   0.000212486984 -6.70639024e-05   0.000212486984 -6.70639018e-05      0.232468852     0.955826359
12.660112            0.228778793     0.956740372   0.000212797214 -6.72537581e-05   0.000212797213 -6.72537575e-05      0.232817363     0.955730604
12.66014             0.229126247     0.956646367   0.000213107977 -6.74441382e-05   0.000213107977 -6.74441376e-05      0.233166085     0.955634646
12.660168            0.229473888     0.956552167   0.000213419275 -6.76350441e-05   0.000213419275 -6.76350435e-05       0.23351502     0.955538486
12.660196            0.229821736     0.956457768   0.000213731108 -6.78264793e-05   0.000213731108 -6.78264787e-05      0.233864163     0.955442123
12.660224            0.230169793     0.956363168   0.000214043477 -6.80184455e-05   0.000214043476 -6.80184449e-05      0.234213516     0.955345557
12.660252            0.230518058     0.956268368   0.000214356382 -6.82109442e-05   0.000214356382 -6.82109436e-05      0.234563078     0.955248788
12.66028             0.230866531     0.956173367   0.000214669825 -6.84039771e-05   0.000214669825 -6.84039764e-05       0.23491285     0.955151815
12.660308            0.231215214     0.956078165   0.000214983807 -6.85975456e-05   0.000214983807  -6.8597545e-05      0.235262833     0.955054638
12.660336            0.231564105     0.955982761   0.000215298329 -6.87916515e-05   0.000215298329 -6.87916509e-05      0.235613025     0.954957256
12.660364            0.231913206     0.955887156   0.000215613392 -6.89862963e-05   0.000215613391 -6.89862957e-05      0.235963427      0.95485967
12.660392            0.232262516     0.955791348   0.000215928996 -6.91814817e-05   0.000215928996 -6.91814811e-05       0.23631404     0.954761878
12.66042             0.232612035     0.955695338   0.000216245144 -6.93772093e-05   0.000216245143 -6.93772087e-05      0.236664864     0.954663881
12.660448            0.232961764     0.955599124   0.000216561835 -6.95734807e-05   0.000216561835 -6.95734801e-05      0.237015898     0.954565678
12.660476            0.233311703     0.955502707   0.000216879072 -6.97702976e-05   0.000216879071  -6.9770297e-05      0.237367144     0.954467269
12.660504            0.233661852     0.955406087   0.000217196854 -6.99676616e-05   0.000217196853  -6.9967661e-05      0.237718601     0.954368653
12.660532            0.234012212     0.955309262   0.000217515183 -7.01655743e-05   0.000217515183 -7.01655737e-05      0.238070269      0.95426983
12.66056             0.234362782     0.955212233   0.000217834061 -7.03640374e-05    0.00021783406 -7.03640368e-05      0.238422149       0.9541708
12.660588            0.234713562        0.955115   0.000218153487 -7.05630526e-05   0.000218153487  -7.0563052e-05      0.238774241     0.954071562
12.660616            0.235064554     0.955017561   0.000218473464 -7.07626215e-05   0.000218473463 -7.07626209e-05      0.239126545     0.953972116
12.660644            0.235415756     0.954919916   0.000218793992 -7.09627458e-05   0.000218793991 -7.09627452e-05      0.239479061     0.953872461
12.660672             0.23576717     0.954822065   0.000219115072 -7.11634272e-05   0.000219115071 -7.11634265e-05      0.239831789     0.953772597
12.6607              0.236118795     0.954724009   0.000219436705 -7.13646673e-05   0.000219436705 -7.13646667e-05       0.24018473     0.953672524
12.660728            0.236470632     0.954625745   0.000219758893 -7.15664678e-05   0.000219758892 -7.15664672e-05      0.240537884     0.953572242
12.660756            0.236822681     0.954527275   0.000220081636 -7.17688305e-05   0.000220081636 -7.17688298e-05       0.24089125     0.953471749
12.660784            0.237174941     0.954428597   0.000220404936  -7.1971757e-05   0.000220404935 -7.19717563e-05       0.24124483     0.953371046
12.660812            0.237527414     0.954329711   0.000220728793 -7.21752489e-05   0.000220728792 -7.21752483e-05      0.241598623     0.953270132
12.66084             0.237880099     0.954230617   0.000221053209 -7.23793082e-05   0.000221053208 -7.23793075e-05       0.24195263     0.953169008
12.660868            0.238232997     0.954131315   0.000221378184 -7.25839363e-05   0.000221378183 -7.25839357e-05       0.24230685     0.953067671
12.660896            0.238586107     0.954031804    0.00022170372 -7.27891352e-05   0.000221703719 -7.27891345e-05      0.242661285     0.952966123
12.660924            0.238939431     0.953932083   0.000222029818 -7.29949064e-05   0.000222029817 -7.29949058e-05      0.243015933     0.952864362
12.660952            0.239292967     0.953832153   0.000222356478 -7.32012517e-05   0.000222356478 -7.32012511e-05      0.243370796     0.952762388
12.66098             0.239646717     0.953732012   0.000222683703 -7.34081729e-05   0.000222683702 -7.34081723e-05      0.243725873     0.952660202
12.661008             0.24000068     0.953631662   0.000223011492 -7.36156717e-05   0.000223011491 -7.36156711e-05      0.244081165     0.952557802
12.661036            0.240354857       0.9535311   0.000223339847 -7.38237498e-05   0.000223339847 -7.38237492e-05      0.244436672     0.952455188
12.661064            0.240709248     0.953430328    0.00022366877 -7.40324091e-05   0.000223668769 -7.40324084e-05      0.244792394      0.95235236
12.661092            0.241063853     0.953329343    0.00022399826 -7.42416512e-05    0.00022399826 -7.42416505e-05      0.245148331     0.952249317
12.66112             0.241418673     0.953228147    0.00022432832 -7.44514779e-05    0.00022432832 -7.44514772e-05      0.245504483      0.95214606
12.661148            0.241773707     0.953126738   0.000224658951  -7.4661891e-05    0.00022465895 -7.46618903e-05      0.245860852     0.952042586
12.661176            0.242128955     0.953025117   0.000224990152 -7.48728923e-05   0.000224990152 -7.48728916e-05      0.246217436     0.951938898
12.661204            0.242484418     0.952923283   0.000225321926 -7.50844835e-05   0.000225321926 -7.50844829e-05      0.246574236     0.951834992
12.661232            0.242840097     0.952821235   0.000225654274 -7.52966665e-05   0.000225654273 -7.52966659e-05      0.246931252     0.951730871
12.66126             0.243195991     0.952718973   0.000225987196  -7.5509443e-05   0.000225987196 -7.55094424e-05      0.247288485     0.951626532
12.661288              0.2435521     0.952616497   0.000226320694 -7.57228149e-05   0.000226320694 -7.57228143e-05      0.247645934     0.951521976
12.661316            0.243908424     0.952513807   0.000226654769  -7.5936784e-05   0.000226654769 -7.59367833e-05      0.248003601     0.951417202
12.661344            0.244264965     0.952410901   0.000226989422  -7.6151352e-05   0.000226989422 -7.61513513e-05      0.248361484      0.95131221
12.661372            0.244621722      0.95230778   0.000227324654 -7.63665207e-05   0.000227324654 -7.63665201e-05      0.248719584     0.951206999
12.6614              0.244978694     0.952204443   0.000227660466 -7.65822921e-05   0.000227660466 -7.65822915e-05      0.249077902      0.95110157
12.661428            0.245335884      0.95210089    0.00022799686  -7.6798668e-05   0.000227996859 -7.67986673e-05      0.249436437     0.950995921
12.661456            0.245693289      0.95199712   0.000228333835 -7.70156501e-05   0.000228333835 -7.70156494e-05      0.249795191     0.950890052
12.661484            0.246050912     0.951893133   0.000228671394 -7.72332403e-05   0.000228671394 -7.72332397e-05      0.250154162     0.950783963
12.661512            0.246408752     0.951788929   0.000229009538 -7.74514406e-05   0.000229009537 -7.74514399e-05      0.250513351     0.950677654
12.66154             0.246766808     0.951684507   0.000229348267 -7.76702526e-05   0.000229348267  -7.7670252e-05      0.250872759     0.950571124
12.661568            0.247125083     0.951579867   0.000229687583 -7.78896784e-05   0.000229687583 -7.78896777e-05      0.251232385     0.950464372
12.661596            0.247483574     0.951475008   0.000230027487 -7.81097197e-05   0.000230027487  -7.8109719e-05       0.25159223     0.950357398
12.661624            0.247842284      0.95136993    0.00023036798 -7.83303784e-05   0.000230367979 -7.83303778e-05      0.251952294     0.950250203
12.661652            0.248201211     0.951264633   0.000230709063 -7.85516565e-05   0.000230709062 -7.85516558e-05      0.252312577     0.950142784
12.66168             0.248560357     0.951159116   0.000231050737 -7.87735558e-05   0.000231050737 -7.87735551e-05       0.25267308     0.950035143
12.661708            0.248919721     0.951053379   0.000231393004 -7.89960781e-05   0.000231393003 -7.89960775e-05      0.253033802     0.949927278
12.661736            0.249279304     0.950947421   0.000231735864 -7.92192255e-05   0.000231735863 -7.92192249e-05      0.253394743      0.94981919
12.661764            0.249639105     0.950841243   0.000232079319 -7.94429998e-05   0.000232079318 -7.94429992e-05      0.253755905     0.949710877
12.661792            0.249999125     0.950734842   0.000232423369 -7.96674029e-05   0.000232423368 -7.96674023e-05      0.254117287      0.94960234
12.66182             0.250359365     0.950628221   0.000232768016 -7.98924368e-05   0.000232768016 -7.98924361e-05      0.254478889     0.949493577
12.661848            0.250719823     0.950521376   0.000233113261 -8.01181033e-05   0.000233113261 -8.01181027e-05      0.254840712      0.94938459
12.661876            0.251080502      0.95041431   0.000233459106 -8.03444045e-05   0.000233459105 -8.03444038e-05      0.255202755     0.949275376
12.661904              0.2514414      0.95030702    0.00023380555 -8.05713422e-05    0.00023380555 -8.05713415e-05       0.25556502     0.949165936
12.661932            0.251802518     0.950199507   0.000234152596 -8.07989183e-05   0.000234152596 -8.07989176e-05      0.255927505     0.949056269
12.66196             0.252163856      0.95009177   0.000234500245 -8.10271349e-05   0.000234500244 -8.10271343e-05      0.256290212     0.948946375
12.661988            0.252525414     0.949983809   0.000234848497 -8.12559939e-05   0.000234848496 -8.12559933e-05       0.25665314     0.948836254
12.662016            0.252887193     0.949875623   0.000235197354 -8.14854973e-05   0.000235197353 -8.14854966e-05       0.25701629     0.948725905
12.662044            0.253249192     0.949767212   0.000235546817  -8.1715647e-05   0.000235546816 -8.17156463e-05      0.257379662     0.948615327
12.662072            0.253611413     0.949658575   0.000235896887  -8.1946445e-05   0.000235896886 -8.19464443e-05      0.257743256     0.948504521
12.6621              0.253973855     0.949549713   0.000236247565 -8.21778933e-05   0.000236247564 -8.21778927e-05      0.258107073     0.948393485
12.662128            0.254336518     0.949440624   0.000236598853  -8.2409994e-05   0.000236598852 -8.24099933e-05      0.258471112      0.94828222
12.662156            0.254699402     0.949331309   0.000236950751 -8.26427489e-05    0.00023695075 -8.26427482e-05      0.258835373     0.948170724
12.662184            0.255062508     0.949221766   0.000237303261 -8.28761601e-05    0.00023730326 -8.28761594e-05      0.259199858     0.948058999
12.662212            0.255425836     0.949111996   0.000237656383 -8.31102296e-05   0.000237656383 -8.31102289e-05      0.259564566     0.947947042
12.66224             0.255789387     0.949001998    0.00023801012 -8.33449594e-05    0.00023801012 -8.33449588e-05      0.259929496     0.947834854
12.662268            0.256153159     0.948891772   0.000238364472 -8.35803517e-05   0.000238364472  -8.3580351e-05      0.260294651     0.947722434
12.662296            0.256517154     0.948781316   0.000238719441 -8.38164082e-05    0.00023871944 -8.38164076e-05      0.260660029     0.947609782
12.662324            0.256881372     0.948670632   0.000239075027 -8.40531313e-05   0.000239075026 -8.40531306e-05      0.261025631     0.947496898
12.662352            0.257245812     0.948559717   0.000239431231 -8.42905228e-05    0.00023943123 -8.42905221e-05      0.261391457      0.94738378
12.66238             0.257610476     0.948448573   0.000239788055 -8.45285848e-05   0.000239788055 -8.45285841e-05      0.261757508     0.947270429
12.662408            0.257975363     0.948337198   0.000240145501 -8.47673194e-05     0.0002401455 -8.47673187e-05      0.262123783     0.947156844
12.662436            0.258340474     0.948225593   0.000240503569 -8.50067287e-05   0.000240503568  -8.5006728e-05      0.262490283     0.947043024
12.662464            0.258705808     0.948113755    0.00024086226 -8.52468147e-05   0.000240862259  -8.5246814e-05      0.262857007      0.94692897
12.662492            0.259071366     0.948001687   0.000241221575 -8.54875795e-05   0.000241221575 -8.54875789e-05      0.263223957     0.946814681
12.66252             0.259437148     0.947889385   0.000241581517 -8.57290253e-05   0.000241581516 -8.57290246e-05      0.263591132     0.946700156
12.662548            0.259803155     0.947776852   0.000241942085  -8.5971154e-05   0.000241942084 -8.59711533e-05      0.263958533     0.946585395
12.662576            0.260169386     0.947664085   0.000242303281 -8.62139678e-05   0.000242303281 -8.62139671e-05      0.264326159     0.946470397
12.662604            0.260535841     0.947551084   0.000242665107 -8.64574689e-05   0.000242665106 -8.64574682e-05      0.264694011     0.946355163
12.662632            0.260902522      0.94743785   0.000243027563 -8.67016592e-05   0.000243027563 -8.67016586e-05       0.26506209     0.946239691
12.66266             0.261269428     0.947324381   0.000243390651 -8.69465411e-05    0.00024339065 -8.69465404e-05      0.265430395     0.946123981
12.662688            0.261636559     0.947210678   0.000243754372 -8.71921165e-05   0.000243754371 -8.71921158e-05      0.265798926     0.946008033
12.662716            0.262003915     0.947096739   0.000244118727 -8.74383876e-05   0.000244118726 -8.74383869e-05      0.266167684     0.945891846
12.662744            0.262371498     0.946982565   0.000244483717 -8.76853566e-05   0.000244483716 -8.76853559e-05      0.266536669     0.945775421
12.662772            0.262739306     0.946868154   0.000244849343 -8.79330257e-05   0.000244849343  -8.7933025e-05      0.266905881     0.945658755
12.6628               0.26310734     0.946753507   0.000245215608 -8.81813969e-05   0.000245215607 -8.81813962e-05       0.26727532     0.945541849
12.662828            0.263475601     0.946638623   0.000245582511 -8.84304725e-05    0.00024558251 -8.84304718e-05      0.267644987     0.945424703
12.662856            0.263844088     0.946523502   0.000245950054 -8.86802546e-05   0.000245950053 -8.86802539e-05      0.268014882     0.945307316
12.662884            0.264212802     0.946408142   0.000246318238 -8.89307454e-05   0.000246318238 -8.89307447e-05      0.268385004     0.945189688
12.662912            0.264581742     0.946292545   0.000246687065 -8.91819471e-05   0.000246687065 -8.91819464e-05      0.268755355     0.945071818
12.66294              0.26495091     0.946176708   0.000247056536 -8.94338619e-05   0.000247056536 -8.94338612e-05      0.269125934     0.944953705
12.662968            0.265320306     0.946060632   0.000247426652  -8.9686492e-05   0.000247426651 -8.96864913e-05      0.269496742      0.94483535
12.662996            0.265689928     0.945944317   0.000247797414 -8.99398397e-05   0.000247797413  -8.9939839e-05      0.269867778     0.944716752
12.663024            0.266059779     0.945827762   0.000248168823 -9.01939071e-05   0.000248168822 -9.01939064e-05      0.270239044      0.94459791
12.663052            0.266429857     0.945710966   0.000248540881 -9.04486964e-05    0.00024854088 -9.04486957e-05      0.270610538     0.944478823
12.66308             0.266800164     0.945593929   0.000248913588   -9.070421e-05   0.000248913588 -9.07042093e-05      0.270982262     0.944359493
12.663108            0.267170699     0.945476651   0.000249286947   -9.096045e-05   0.000249286946 -9.09604493e-05      0.271354216     0.944239917
12.663136            0.267541463      0.94535913   0.000249660958 -9.12174187e-05   0.000249660957  -9.1217418e-05      0.271726399     0.944120096
12.663164            0.267912455     0.945241368   0.000250035622 -9.14751183e-05   0.000250035622 -9.14751176e-05      0.272098812     0.944000028
12.663192            0.268283676     0.945123363   0.000250410941 -9.17335512e-05   0.000250410941 -9.17335505e-05      0.272471456     0.943879715
12.66322             0.268655127     0.945005114   0.000250786917 -9.19927196e-05   0.000250786916 -9.19927189e-05       0.27284433     0.943759154
12.663248            0.269026806     0.944886622   0.000251163549 -9.22526257e-05   0.000251163548  -9.2252625e-05      0.273217434     0.943638347
12.663276            0.269398716     0.944767885    0.00025154084 -9.25132719e-05   0.000251540839 -9.25132712e-05       0.27359077     0.943517291
12.663304            0.269770855     0.944648904    0.00025191879 -9.27746605e-05   0.000251918789 -9.27746598e-05      0.273964336     0.943395987
12.663332            0.270143224     0.944529678   0.000252297401 -9.30367938e-05   0.000252297401 -9.30367931e-05      0.274338134     0.943274435
12.66336             0.270515823     0.944410207   0.000252676675  -9.3299674e-05   0.000252676674 -9.32996733e-05      0.274712163     0.943152633
12.663388            0.270888653     0.944290489   0.000253056612 -9.35633036e-05   0.000253056611 -9.35633029e-05      0.275086423     0.943030582
12.663416            0.271261713     0.944170525   0.000253437214 -9.38276848e-05   0.000253437213 -9.38276841e-05      0.275460916      0.94290828
12.663444            0.271635005     0.944050314   0.000253818481   -9.409282e-05   0.000253818481 -9.40928192e-05       0.27583564     0.942785728
12.663472            0.272008527     0.943929856   0.000254200416 -9.43587114e-05   0.000254200415 -9.43587107e-05      0.276210597     0.942662925
12.6635               0.27238228     0.943809149   0.000254583019 -9.46253616e-05   0.000254583019 -9.46253609e-05      0.276585786     0.942539871
12.663528            0.272756265     0.943688195   0.000254966292 -9.48927728e-05   0.000254966291 -9.48927721e-05      0.276961208     0.942416564
12.663556            0.273130481     0.943566992   0.000255350236 -9.51609474e-05   0.000255350235 -9.51609467e-05      0.277336863     0.942293005
12.663584             0.27350493     0.943445539   0.000255734852 -9.54298878e-05   0.000255734851  -9.5429887e-05      0.277712751     0.942169193
12.663612             0.27387961     0.943323837   0.000256120142 -9.56995963e-05   0.000256120141 -9.56995956e-05      0.278088872     0.942045127
12.66364             0.274254523     0.943201885   0.000256506106 -9.59700754e-05   0.000256506105 -9.59700747e-05      0.278465227     0.941920808
12.663668            0.274629668     0.943079682   0.000256892746 -9.62413275e-05   0.000256892746 -9.62413267e-05      0.278841816     0.941796234
12.663696            0.275005045     0.942957228   0.000257280064 -9.65133549e-05   0.000257280063 -9.65133542e-05      0.279218638     0.941671406
12.663724            0.275380656     0.942834523    0.00025766806 -9.67861601e-05   0.000257668059 -9.67861594e-05      0.279595694     0.941546322
12.663752              0.2757565     0.942711565   0.000258056736 -9.70597456e-05   0.000258056735 -9.70597449e-05      0.279972985     0.941420982
12.66378             0.276132577     0.942588355   0.000258446093 -9.73341137e-05   0.000258446093  -9.7334113e-05      0.280350511     0.941295386
12.663808            0.276508887     0.942464892   0.000258836133 -9.76092669e-05   0.000258836132 -9.76092662e-05      0.280728271     0.941169533
12.663836            0.276885431     0.942341175   0.000259226856 -9.78852077e-05   0.000259226855 -9.78852069e-05      0.281106266     0.941043423
12.663864             0.27726221     0.942217204   0.000259618264 -9.81619384e-05   0.000259618264 -9.81619377e-05      0.281484496     0.940917055
12.663892            0.277639222     0.942092979   0.000260010359 -9.84394617e-05   0.000260010358 -9.84394609e-05      0.281862962     0.940790429
12.66392             0.278016468     0.941968499   0.000260403141 -9.87177799e-05    0.00026040314 -9.87177792e-05      0.282241663     0.940663545
12.663948            0.278393949     0.941843764   0.000260796612 -9.89968956e-05   0.000260796611 -9.89968948e-05        0.2826206       0.9405364
12.663976            0.278771665     0.941718773   0.000261190773 -9.92768112e-05   0.000261190772 -9.92768104e-05      0.282999773     0.940408997
12.664004            0.279149616     0.941593525   0.000261585625 -9.95575292e-05   0.000261585625 -9.95575285e-05      0.283379182     0.940281333
12.664032            0.279527802     0.941468021    0.00026198117 -9.98390522e-05    0.00026198117 -9.98390515e-05      0.283758828     0.940153408
12.66406             0.279906224     0.941342259    0.00026237741 -0.000100121383   0.000262377409 -0.000100121382       0.28413871     0.940025222
12.664088            0.280284881      0.94121624   0.000262774344 -0.000100404523   0.000262774343 -0.000100404522      0.284518829     0.939896775
12.664116            0.280663773     0.941089962   0.000263171975 -0.000100688476   0.000263171975 -0.000100688475      0.284899185     0.939768065
12.664144            0.281042902     0.940963425   0.000263570304 -0.000100973244   0.000263570304 -0.000100973244      0.285279779     0.939639093
12.664172            0.281422267     0.940836629   0.000263969333  -0.00010125883   0.000263969332 -0.000101258829       0.28566061     0.939509857
12.6642              0.281801869     0.940709574   0.000264369062 -0.000101545236   0.000264369061 -0.000101545235      0.286041678     0.939380358
12.664228            0.282181707     0.940582258   0.000264769493 -0.000101832465   0.000264769492 -0.000101832464      0.286422985     0.939250594
12.664256            0.282561782     0.940454681   0.000265170627 -0.000102120519   0.000265170626 -0.000102120518       0.28680453     0.939120566
12.664284            0.282942094     0.940326843   0.000265572465 -0.000102409401   0.000265572464   -0.0001024094      0.287186313     0.938990273
12.664312            0.283322643     0.940198743   0.000265975009 -0.000102699114   0.000265975009 -0.000102699113      0.287568334     0.938859714
12.66434              0.28370343     0.940070381   0.000266378261  -0.00010298966    0.00026637826 -0.000102989659      0.287950594     0.938728889
12.664368            0.284084454     0.939941757   0.000266782221 -0.000103281041    0.00026678222 -0.000103281041      0.288333093     0.938597797
12.664396            0.284465716     0.939812869   0.000267186891 -0.000103573261    0.00026718689 -0.000103573261      0.288715832     0.938466438
12.664424            0.284847217     0.939683717   0.000267592272 -0.000103866323   0.000267592271 -0.000103866322       0.28909881     0.938334811
12.664452            0.285228956     0.939554301   0.000267998365 -0.000104160227   0.000267998364 -0.000104160227      0.289482027     0.938202916
12.66448             0.285610933      0.93942462   0.000268405172 -0.000104454979   0.000268405171 -0.000104454978      0.289865484     0.938070752
12.664508            0.285993149     0.939294674   0.000268812694 -0.000104750579   0.000268812694 -0.000104750578      0.290249181     0.937938319
12.664536            0.286375604     0.939164463   0.000269220933 -0.000105047031   0.000269220932  -0.00010504703      0.290633119     0.937805616
12.664564            0.286758298     0.939033985    0.00026962989 -0.000105344337   0.000269629889 -0.000105344336      0.291017297     0.937672643
12.664592            0.287141232      0.93890324   0.000270039565   -0.0001056425   0.000270039565   -0.0001056425      0.291401715     0.937539399
12.66462             0.287524405     0.938772228   0.000270449962 -0.000105941523   0.000270449961 -0.000105941523      0.291786375     0.937405884
12.664648            0.287907818     0.938640948    0.00027086108 -0.000106241409   0.000270861079 -0.000106241408      0.292171275     0.937272097
12.664676            0.288291471       0.9385094   0.000271272921  -0.00010654216    0.00027127292 -0.000106542159      0.292556417     0.937138037
12.664704            0.288675364     0.938377584   0.000271685487 -0.000106843779   0.000271685486 -0.000106843778        0.2929418     0.937003705
12.664732            0.289059498     0.938245497   0.000272098779 -0.000107146268   0.000272098778 -0.000107146267      0.293327425     0.936869099
12.66476             0.289443873     0.938113141   0.000272512798 -0.000107449631   0.000272512797  -0.00010744963      0.293713292      0.93673422
12.664788            0.289828488     0.937980515   0.000272927545  -0.00010775387   0.000272927544 -0.000107753869      0.294099401     0.936599065
12.664816            0.290213344     0.937847618   0.000273343023 -0.000108058988   0.000273343022 -0.000108058987      0.294485753     0.936463636
12.664844            0.290598442     0.937714449   0.000273759232 -0.000108364988   0.000273759231 -0.000108364987      0.294872347     0.936327932
12.664872            0.290983781     0.937581008   0.000274176173 -0.000108671872   0.000274176173 -0.000108671871      0.295259183     0.936191951
12.6649              0.291369362     0.937447295   0.000274593849 -0.000108979643   0.000274593848 -0.000108979643      0.295646263     0.936055694
12.664928            0.291755185      0.93731331    0.00027501226 -0.000109288305   0.000275012259 -0.000109288304      0.296033586      0.93591916
12.664956             0.29214125      0.93717905   0.000275431408  -0.00010959786   0.000275431407 -0.000109597859      0.296421153     0.935782348
12.664984            0.292527557     0.937044517   0.000275851294  -0.00010990831   0.000275851293 -0.000109908309      0.296808963     0.935645258
12.665012            0.292914107     0.936909709    0.00027627192 -0.000110219659   0.000276271919 -0.000110219658      0.297197017     0.935507889
12.66504               0.2933009     0.936774626   0.000276693286 -0.000110531909   0.000276693286 -0.000110531909      0.297585315     0.935370241
12.665068            0.293687936     0.936639267   0.000277115395 -0.000110845064   0.000277115394 -0.000110845063      0.297973858     0.935232313
12.665096            0.294075215     0.936503633   0.000277538248 -0.000111159126   0.000277538247 -0.000111159125      0.298362645     0.935094105
12.665124            0.294462738     0.936367721   0.000277961845 -0.000111474098   0.000277961845 -0.000111474097      0.298751676     0.934955616
12.665152            0.294850504     0.936231533    0.00027838619 -0.000111789983   0.000278386189 -0.000111789982      0.299140953     0.934816846
12.66518             0.295238514     0.936095067   0.000278811282 -0.000112106784   0.000278811281 -0.000112106783      0.299530475     0.934677794
12.665208            0.295626768     0.935958322   0.000279237123 -0.000112424503   0.000279237122 -0.000112424502      0.299920242     0.934538459
12.665236            0.296015266     0.935821299   0.000279663715 -0.000112743144   0.000279663714 -0.000112743143      0.300310255     0.934398841
12.665264            0.296404009     0.935683997   0.000280091059  -0.00011306271   0.000280091058 -0.000113062709      0.300700513      0.93425894
12.665292            0.296792997     0.935546414   0.000280519156 -0.000113383203   0.000280519155 -0.000113383202      0.301091018     0.934118755
12.66532              0.29718223     0.935408552   0.000280948008 -0.000113704627   0.000280948007 -0.000113704626      0.301481769     0.933978284
12.665348            0.297571708     0.935270408   0.000281377617 -0.000114026984   0.000281377616 -0.000114026983      0.301872766     0.933837529
12.665376            0.297961431     0.935131983   0.000281807983 -0.000114350277   0.000281807982 -0.000114350277       0.30226401     0.933696488
12.665404              0.2983514     0.934993276   0.000282239108  -0.00011467451   0.000282239107  -0.00011467451      0.302655501     0.933555161