! TOUCHSTONE file generated by CST MICROWAVE STUDIO
! Date and time: Wed Jul 31 12:41:11 2024
! Project name: WaveGuide_BPF-Ver4.1_U-shape_Ku_T3_C4_CWA_2.cst
! Parameters = {cavity_h=16; cavity_l0=10; cavity_l1=15.1937; cavity_l2=16.8235; cavity_l3=17.0855; cavity_l4=17.2715; cavity_l5=17.1278; cavity_l6=17.57; cavity_r=2.5; cavity_screw_l=0.5; cavity_screw_r=1.5; cavity_w=8; iris_h00=0; iris_h01=8.8292; iris_h112=0; iris_h12=5.6022; iris_h211=3.6665; iris_h23=5.1946; iris_h310=3.9779; iris_h34=5.0819; iris_h45=4.9321; iris_h49=4.6177; iris_h56=4.8077; iris_h58=4.4429; iris_h67=6.5712; iris_rx=0.1; iris_screw_l=0.5; iris_screw_r=1.5; iris_shift00=0; iris_shift112=0; iris_shift211=3.5; iris_shift310=0; iris_shift49=0; iris_shift58=3.5; iris_shift67=3.5; iris_tx=4.5; iris_tz=4.5; iris_w00=0; iris_w112=0; iris_w211=4; iris_w310=3.9779; iris_w49=4.6177; iris_w58=4; iris_w67=4; mesh_cavity=5; mesh_iris=7; mesh_screw=7; order=12; reset_all=0; sigma=4.8e+07}
! Header version: 2018
! Port assignment regex: !\s*Touchstone port\s*([0-9]+)\s*=\s*(CST MWS port|CST DS port)\s*([0-9]+|Zmin|Zmax)\s*\(\"(.*)\"\)(\s*mode\s*([0-9]+))?.*
! Touchstone port assignment:
! Touchstone port 1 = CST MWS port 1 ("")
! Touchstone port 2 = CST MWS port 2 ("")
# GHz S RI R 50
12.66                0.336890333     0.921356045   0.000199873691 -8.84220804e-05    0.00019987369 -8.84220798e-05      0.337061692     0.921379132
12.660028            0.337284919     0.921197976   0.000200132541 -8.86451917e-05    0.00020013254 -8.86451911e-05      0.337454754     0.921221629
12.660056             0.33767974     0.921039608    0.00020039174 -8.88688743e-05   0.000200391739 -8.88688737e-05      0.337848106     0.921063809
12.660084            0.338074785     0.920880945   0.000200651293  -8.9093126e-05   0.000200651292 -8.90931254e-05      0.338241715     0.920905683
12.660112            0.338470048     0.920721988   0.000200911203 -8.93179446e-05   0.000200911202 -8.93179439e-05      0.338635549     0.920747262
12.66014              0.33886552     0.920562741   0.000201171474 -8.95433279e-05   0.000201171473 -8.95433272e-05      0.339029574     0.920588559
12.660168            0.339261199     0.920403202   0.000201432108 -8.97692773e-05   0.000201432107 -8.97692767e-05       0.33942379     0.920429572
12.660196            0.339657094     0.920243369   0.000201693101  -8.9995797e-05     0.0002016931 -8.99957964e-05       0.33981822     0.920270293
12.660224            0.340053203     0.920083242   0.000201954455 -9.02228884e-05   0.000201954454 -9.02228878e-05      0.340212863     0.920110721
12.660252            0.340449526     0.919922821    0.00020221617 -9.04505531e-05   0.000202216169 -9.04505525e-05      0.340607721     0.919950857
12.66028             0.340846065     0.919762104   0.000202478246 -9.06787926e-05   0.000202478244 -9.06787919e-05      0.341002792     0.919790699
12.660308            0.341242818     0.919601091   0.000202740683 -9.09076084e-05   0.000202740682 -9.09076078e-05      0.341398077     0.919630247
12.660336            0.341639786     0.919439782   0.000203003482 -9.11370022e-05   0.000203003481 -9.11370015e-05      0.341793576     0.919469501
12.660364             0.34203697     0.919278176   0.000203266644 -9.13669754e-05   0.000203266643 -9.13669747e-05      0.342189289      0.91930846
12.660392            0.342434368     0.919116273   0.000203530169 -9.15975296e-05   0.000203530168 -9.15975289e-05      0.342585217     0.919147124
12.66042             0.342831982     0.918954072   0.000203794057 -9.18286663e-05   0.000203794056 -9.18286657e-05      0.342981359     0.918985491
12.660448            0.343229811     0.918791573   0.000204058308 -9.20603872e-05   0.000204058307 -9.20603866e-05      0.343377716     0.918823562
12.660476            0.343627856     0.918628775   0.000204322924 -9.22926939e-05   0.000204322923 -9.22926932e-05      0.343774287     0.918661337
12.660504            0.344026117     0.918465677   0.000204587904 -9.25255878e-05   0.000204587903 -9.25255871e-05      0.344171073     0.918498813
12.660532            0.344424593      0.91830228   0.000204853249 -9.27590705e-05   0.000204853248 -9.27590699e-05      0.344568074     0.918335992
12.66056             0.344823285     0.918138582    0.00020511896 -9.29931437e-05   0.000205118959 -9.29931431e-05       0.34496529     0.918172873
12.660588            0.345222193     0.917974584   0.000205385036 -9.32278089e-05   0.000205385035 -9.32278083e-05      0.345362721     0.918009454
12.660616            0.345621318     0.917810284   0.000205651478 -9.34630678e-05   0.000205651477 -9.34630671e-05      0.345760367     0.917845736
12.660644            0.346020658     0.917645683   0.000205918287 -9.36989218e-05   0.000205918286 -9.36989212e-05      0.346158229     0.917681718
12.660672            0.346420215     0.917480779   0.000206185463 -9.39353727e-05   0.000206185462 -9.39353721e-05      0.346556306       0.9175174
12.6607              0.346819988     0.917315572   0.000206453006  -9.4172422e-05   0.000206453005 -9.41724214e-05      0.346954598      0.91735278
12.660728            0.347219978     0.917150061   0.000206720917 -9.44100714e-05   0.000206720916 -9.44100707e-05      0.347353106     0.917187859
12.660756            0.347620184     0.916984247   0.000206989196 -9.46483224e-05   0.000206989195 -9.46483217e-05       0.34775183     0.917022636
12.660784            0.348020607     0.916818128   0.000207257844 -9.48871766e-05   0.000207257843  -9.4887176e-05      0.348150769     0.916857111
12.660812            0.348421247     0.916651705   0.000207526861 -9.51266358e-05    0.00020752686 -9.51266351e-05      0.348549925     0.916691282
12.66084             0.348822103     0.916484976   0.000207796247 -9.53667015e-05   0.000207796246 -9.53667008e-05      0.348949296      0.91652515
12.660868            0.349223177      0.91631794   0.000208066003 -9.56073753e-05   0.000208066002 -9.56073747e-05      0.349348884     0.916358714
12.660896            0.349624468     0.916150599   0.000208336129  -9.5848659e-05   0.000208336128 -9.58486583e-05      0.349748688     0.916191974
12.660924            0.350025976      0.91598295   0.000208606626 -9.60905541e-05   0.000208606625 -9.60905534e-05      0.350148708     0.916024928
12.660952            0.350427702     0.915814994   0.000208877494 -9.63330622e-05   0.000208877493 -9.63330616e-05      0.350548945     0.915857576
12.66098             0.350829645     0.915646729   0.000209148734 -9.65761852e-05   0.000209148733 -9.65761845e-05      0.350949398     0.915689919
12.661008            0.351231805     0.915478156   0.000209420345 -9.68199245e-05   0.000209420344 -9.68199238e-05      0.351350068     0.915521955
12.661036            0.351634184     0.915309274   0.000209692329 -9.70642819e-05   0.000209692328 -9.70642812e-05      0.351750955     0.915353683
12.661064             0.35203678     0.915140082   0.000209964686  -9.7309259e-05   0.000209964684 -9.73092583e-05      0.352152059     0.915185104
12.661092            0.352439593      0.91497058   0.000210237415 -9.75548575e-05   0.000210237414 -9.75548568e-05      0.352553379     0.915016217
12.66112             0.352842625     0.914800767   0.000210510518  -9.7801079e-05   0.000210510517 -9.78010784e-05      0.352954917      0.91484702
12.661148            0.353245875     0.914630643   0.000210783995 -9.80479254e-05   0.000210783994 -9.80479247e-05      0.353356672     0.914677515
12.661176            0.353649343     0.914460207   0.000211057847 -9.82953982e-05   0.000211057845 -9.82953975e-05      0.353758644       0.9145077
12.661204             0.35405303     0.914289459   0.000211332073 -9.85434991e-05   0.000211332071 -9.85434984e-05      0.354160834     0.914337574
12.661232            0.354456935     0.914118398   0.000211606674 -9.87922298e-05   0.000211606673 -9.87922291e-05      0.354563241     0.914167138
12.66126             0.354861058     0.913947023   0.000211881651 -9.90415921e-05   0.000211881649 -9.90415914e-05      0.354965866      0.91399639
12.661288              0.3552654     0.913775335   0.000212157003 -9.92915876e-05   0.000212157002 -9.92915869e-05      0.355368709      0.91382533
12.661316            0.355669961     0.913603332   0.000212432732 -9.95422181e-05   0.000212432731 -9.95422174e-05      0.355771769     0.913653958
12.661344             0.35607474     0.913431014   0.000212708838 -9.97934852e-05   0.000212708837 -9.97934845e-05      0.356175047     0.913482272
12.661372            0.356479738     0.913258381   0.000212985321 -0.000100045391    0.00021298532  -0.00010004539      0.356578544     0.913310274
12.6614              0.356884956     0.913085431   0.000213262182 -0.000100297936    0.00021326218 -0.000100297936      0.356982258     0.913137961
12.661428            0.357290392     0.912912165    0.00021353942 -0.000100551124   0.000213539419 -0.000100551123      0.357386191     0.912965333
12.661456            0.357696048     0.912738582   0.000213817037 -0.000100804955   0.000213817036 -0.000100804954      0.357790342     0.912792391
12.661484            0.358101923     0.912564681   0.000214095033 -0.000101059431   0.000214095031  -0.00010105943      0.358194712     0.912619132
12.661512            0.358508018     0.912390462   0.000214373407 -0.000101314554   0.000214373406 -0.000101314554        0.3585993     0.912445558
12.66154             0.358914332     0.912215924   0.000214652162 -0.000101570327   0.000214652161 -0.000101570326      0.359004106     0.912271666
12.661568            0.359320865     0.912041066   0.000214931296 -0.000101826749   0.000214931295 -0.000101826749      0.359409132     0.912097458
12.661596            0.359727618     0.911865889   0.000215210811 -0.000102083824    0.00021521081 -0.000102083824      0.359814376     0.911922931
12.661624            0.360134592     0.911690391   0.000215490706 -0.000102341554   0.000215490705 -0.000102341553      0.360219839     0.911748086
12.661652            0.360541785     0.911514572   0.000215770983 -0.000102599939   0.000215770982 -0.000102599938      0.360625522     0.911572922
12.66168             0.360949198     0.911338432   0.000216051641 -0.000102858981    0.00021605164  -0.00010285898      0.361031423     0.911397439
12.661708            0.361356831      0.91116197   0.000216332681 -0.000103118683    0.00021633268 -0.000103118682      0.361437544     0.911221636
12.661736            0.361764684     0.910985185   0.000216614104 -0.000103379046   0.000216614103 -0.000103379046      0.361843884     0.911045512
12.661764            0.362172758     0.910808076   0.000216895909 -0.000103640073   0.000216895908 -0.000103640072      0.362250443     0.910869066
12.661792            0.362581052     0.910630644   0.000217178098 -0.000103901764   0.000217178096 -0.000103901763      0.362657222       0.9106923
12.66182             0.362989567     0.910452888    0.00021746067 -0.000104164121   0.000217460669 -0.000104164121      0.363064221     0.910515211
12.661848            0.363398302     0.910274807   0.000217743626 -0.000104427147   0.000217743625 -0.000104427147       0.36347144     0.910337799
12.661876            0.363807259       0.9100964   0.000218026966 -0.000104690843   0.000218026965 -0.000104690843      0.363878878     0.910160063
12.661904            0.364216435     0.909917668   0.000218310691 -0.000104955212    0.00021831069 -0.000104955211      0.364286536     0.909982004
12.661932            0.364625833     0.909738608   0.000218594801 -0.000105220254     0.0002185948 -0.000105220253      0.364694415     0.909803621
12.66196             0.365035452     0.909559222   0.000218879297 -0.000105485971   0.000218879296 -0.000105485971      0.365102513     0.909624912
12.661988            0.365445292     0.909379508   0.000219164179 -0.000105752367   0.000219164177 -0.000105752366      0.365510832     0.909445878
12.662016            0.365855353     0.909199466   0.000219449447 -0.000106019441   0.000219449445  -0.00010601944      0.365919371     0.909266518
12.662044            0.366265635     0.909019095   0.000219735101 -0.000106287197     0.0002197351 -0.000106287196       0.36632813     0.909086831
12.662072            0.366676139     0.908838395   0.000220021143 -0.000106555635   0.000220021142 -0.000106555635       0.36673711     0.908906817
12.6621              0.367086865     0.908657365   0.000220307572 -0.000106824759   0.000220307571 -0.000106824758      0.367146311     0.908726474
12.662128            0.367497811     0.908476004   0.000220594389 -0.000107094569   0.000220594388 -0.000107094569      0.367555733     0.908545804
12.662156             0.36790898     0.908294312   0.000220881595 -0.000107365068   0.000220881593 -0.000107365068      0.367965375     0.908364805
12.662184             0.36832037     0.908112288   0.000221169189 -0.000107636258   0.000221169187 -0.000107636257      0.368375238     0.908183476
12.662212            0.368731983     0.907929933   0.000221457172  -0.00010790814    0.00022145717 -0.000107908139      0.368785322     0.908001817
12.66224             0.369143817     0.907747244   0.000221745544 -0.000108180716   0.000221745543 -0.000108180715      0.369195628     0.907819827
12.662268            0.369555873     0.907564222   0.000222034306 -0.000108453988   0.000222034305 -0.000108453987      0.369606154     0.907637506
12.662296            0.369968152     0.907380867   0.000222323459 -0.000108727958   0.000222323458 -0.000108727957      0.370016902     0.907454853
12.662324            0.370380652     0.907197176   0.000222613002 -0.000109002628   0.000222613001 -0.000109002627      0.370427871     0.907271868
12.662352            0.370793376     0.907013151   0.000222902936 -0.000109277999   0.000222902935 -0.000109277999      0.370839062      0.90708855
12.66238             0.371206321      0.90682879   0.000223193261 -0.000109554075    0.00022319326 -0.000109554074      0.371250474     0.906904899
12.662408            0.371619489     0.906644093   0.000223483978 -0.000109830856   0.000223483977 -0.000109830855      0.371662108     0.906720913
12.662436             0.37203288     0.906459059   0.000223775088 -0.000110108345   0.000223775086 -0.000110108344      0.372073964     0.906536593
12.662464            0.372446493     0.906273687   0.000224066589 -0.000110386543   0.000224066588 -0.000110386542      0.372486042     0.906351938
12.662492             0.37286033     0.906087978   0.000224358484 -0.000110665452   0.000224358483 -0.000110665452      0.372898342     0.906166946
12.66252             0.373274389      0.90590193   0.000224650772 -0.000110945075   0.000224650771 -0.000110945074      0.373310864     0.905981619
12.662548            0.373688671     0.905715542   0.000224943453 -0.000111225413   0.000224943452 -0.000111225412      0.373723608     0.905795954
12.662576            0.374103176     0.905528815   0.000225236529 -0.000111506468   0.000225236528 -0.000111506468      0.374136574     0.905609952
12.662604            0.374517905     0.905341748   0.000225529999 -0.000111788243   0.000225529998 -0.000111788242      0.374549762     0.905423611
12.662632            0.374932857      0.90515434   0.000225823864 -0.000112070738   0.000225823862 -0.000112070738      0.374963173     0.905236932
12.66266             0.375348032      0.90496659   0.000226118123 -0.000112353957   0.000226118122 -0.000112353956      0.375376807     0.905049914
12.662688            0.375763431     0.904778498   0.000226412779 -0.000112637901   0.000226412778   -0.0001126379      0.375790663     0.904862555
12.662716            0.376179053     0.904590064    0.00022670783 -0.000112922571   0.000226707829 -0.000112922571      0.376204742     0.904674857
12.662744            0.376594899     0.904401286   0.000227003278 -0.000113207971   0.000227003277  -0.00011320797      0.376619044     0.904486817
12.662772            0.377010968     0.904212164   0.000227299122 -0.000113494102   0.000227299121 -0.000113494101      0.377033568     0.904298435
12.6628              0.377427262     0.904022698   0.000227595363 -0.000113780966   0.000227595362 -0.000113780965      0.377448316     0.904109711
12.662828            0.377843779     0.903832887   0.000227892002 -0.000114068564   0.000227892001 -0.000114068563      0.377863287     0.903920645
12.662856             0.37826052      0.90364273   0.000228189038   -0.0001143569   0.000228189037 -0.000114356899      0.378278481     0.903731234
12.662884            0.378677486     0.903452227   0.000228486473 -0.000114645974   0.000228486472 -0.000114645974      0.378693898      0.90354148
12.662912            0.379094675     0.903261377   0.000228784306  -0.00011493579   0.000228784305 -0.000114935789      0.379109538     0.903351381
12.66294             0.379512089     0.903070179   0.000229082538 -0.000115226349   0.000229082537 -0.000115226348      0.379525402     0.903160937
12.662968            0.379929728     0.902878634   0.000229381169 -0.000115517652   0.000229381168 -0.000115517652       0.37994149     0.902970148
12.662996             0.38034759     0.902686739     0.0002296802 -0.000115809703   0.000229680199 -0.000115809702      0.380357801     0.902779011
12.663024            0.380765678     0.902494496   0.000229979631 -0.000116102503    0.00022997963 -0.000116102502      0.380774336     0.902587528
12.663052             0.38118399     0.902301902   0.000230279462 -0.000116396054   0.000230279461 -0.000116396053      0.381191094     0.902395697
12.66308             0.381602526     0.902108958   0.000230579694 -0.000116690358   0.000230579693 -0.000116690358      0.381608077     0.902203518
12.663108            0.382021288     0.901915663   0.000230880327 -0.000116985418   0.000230880326 -0.000116985417      0.382025283      0.90201099
12.663136            0.382440274     0.901722016   0.000231181362 -0.000117281235   0.000231181361 -0.000117281234      0.382442714     0.901818112
12.663164            0.382859485     0.901528017   0.000231482798 -0.000117577811   0.000231482797  -0.00011757781      0.382860369     0.901624885
12.663192            0.383278922     0.901333665   0.000231784636 -0.000117875149   0.000231784635 -0.000117875148      0.383278248     0.901431306
12.66322             0.383698583      0.90113896   0.000232086877  -0.00011817325   0.000232086876 -0.000118173249      0.383696351     0.901237377
12.663248             0.38411847       0.9009439   0.000232389521 -0.000118472117    0.00023238952 -0.000118472116      0.384114679     0.901043096
12.663276            0.384538582     0.900748485   0.000232692568 -0.000118771751   0.000232692567 -0.000118771751      0.384533231     0.900848462
12.663304             0.38495892     0.900552715   0.000232996019 -0.000119072156   0.000232996018 -0.000119072155      0.384952008     0.900653475
12.663332            0.385379483     0.900356589   0.000233299873 -0.000119373332   0.000233299872 -0.000119373331      0.385371009     0.900458134
12.66336             0.385800271     0.900160107   0.000233604132 -0.000119675282   0.000233604131 -0.000119675282      0.385790235     0.900262439
12.663388            0.386221285     0.899963267   0.000233908796 -0.000119978009   0.000233908795 -0.000119978008      0.386209687     0.900066389
12.663416            0.386642525     0.899766069   0.000234213865 -0.000120281514   0.000234213863 -0.000120281513      0.386629363     0.899869983
12.663444            0.387063991     0.899568513   0.000234519339 -0.000120585799   0.000234519337 -0.000120585798      0.387049264     0.899673222
12.663472            0.387485683     0.899370597   0.000234825218 -0.000120890867   0.000234825217 -0.000120890866       0.38746939     0.899476103
12.6635                0.3879076     0.899172322   0.000235131504 -0.000121196719   0.000235131503 -0.000121196718      0.387889741     0.899278627
12.663528            0.388329744     0.898973686   0.000235438196 -0.000121503358   0.000235438195 -0.000121503357      0.388310318     0.899080793
12.663556            0.388752114      0.89877469   0.000235745295 -0.000121810786   0.000235745294 -0.000121810785       0.38873112     0.898882601
12.663584             0.38917471     0.898575332   0.000236052802 -0.000122119005     0.0002360528 -0.000122119005      0.389152147     0.898684049
12.663612            0.389597533     0.898375611   0.000236360715 -0.000122428018   0.000236360714 -0.000122428017        0.3895734     0.898485137
12.66364             0.390020582     0.898175528   0.000236669037 -0.000122737826   0.000236669035 -0.000122737825      0.389994878     0.898285864
12.663668            0.390443857     0.897975081   0.000236977766 -0.000123048432   0.000236977765 -0.000123048431      0.390416583      0.89808623
12.663696            0.390867359      0.89777427   0.000237286904 -0.000123359837   0.000237286903 -0.000123359836      0.390838513     0.897886235
12.663724            0.391291087     0.897573094   0.000237596451 -0.000123672044    0.00023759645 -0.000123672044      0.391260668     0.897685877
12.663752            0.391715043     0.897371552   0.000237906407 -0.000123985056   0.000237906406 -0.000123985055       0.39168305     0.897485156
12.66378             0.392139225     0.897169645   0.000238216773 -0.000124298874   0.000238216772 -0.000124298873      0.392105658     0.897284071
12.663808            0.392563634     0.896967371   0.000238527548 -0.000124613501   0.000238527547   -0.0001246135      0.392528492     0.897082622
12.663836             0.39298827     0.896764729   0.000238838734 -0.000124928938   0.000238838733 -0.000124928937      0.392951552     0.896880808
12.663864            0.393413133      0.89656172    0.00023915033 -0.000125245189   0.000239150329 -0.000125245188      0.393374838     0.896678629
12.663892            0.393838223     0.896358342   0.000239462337 -0.000125562255   0.000239462336 -0.000125562254       0.39379835     0.896476083
12.66392              0.39426354     0.896154594   0.000239774756 -0.000125880138   0.000239774754 -0.000125880137      0.394222089      0.89627317
12.663948            0.394689084     0.895950477   0.000240087585 -0.000126198841   0.000240087584  -0.00012619884      0.394646055     0.896069889
12.663976            0.395114856     0.895745989   0.000240400827 -0.000126518366   0.000240400826 -0.000126518365      0.395070247     0.895866241
12.664004            0.395540856     0.895541129   0.000240714481 -0.000126838715    0.00024071448 -0.000126838715      0.395494665     0.895662223
12.664032            0.395967082     0.895335898   0.000241028547 -0.000127159891   0.000241028546 -0.000127159891      0.395919311     0.895457837
12.66406             0.396393537     0.895130295   0.000241343027 -0.000127481896   0.000241343025 -0.000127481895      0.396344183      0.89525308
12.664088            0.396820219     0.894924318   0.000241657919 -0.000127804732   0.000241657918 -0.000127804731      0.396769282     0.895047952
12.664116            0.397247128     0.894717967   0.000241973225 -0.000128128401   0.000241973224   -0.0001281284      0.397194608     0.894842453
12.664144            0.397674266     0.894511242   0.000242288945 -0.000128452905   0.000242288944 -0.000128452904      0.397620161     0.894636582
12.664172            0.398101631     0.894304141   0.000242605079 -0.000128778248   0.000242605078 -0.000128778247      0.398045941     0.894430338
12.6642              0.398529225     0.894096665   0.000242921627 -0.000129104431   0.000242921626  -0.00012910443      0.398471948      0.89422372
12.664228            0.398957046     0.893888813   0.000243238591 -0.000129431456   0.000243238589 -0.000129431455      0.398898182     0.894016729
12.664256            0.399385096     0.893680583   0.000243555969 -0.000129759326   0.000243555968 -0.000129759325      0.399324644     0.893809363
12.664284            0.399813373     0.893471975   0.000243873763 -0.000130088043   0.000243873761 -0.000130088042      0.399751333     0.893601622
12.664312            0.400241879     0.893262989   0.000244191972  -0.00013041761   0.000244191971 -0.000130417609       0.40017825     0.893393504
12.66434             0.400670613     0.893053624   0.000244510598 -0.000130748028   0.000244510597 -0.000130748028      0.400605394      0.89318501
12.664368            0.401099576     0.892843879    0.00024482964 -0.000131079301   0.000244829639   -0.0001310793      0.401032766     0.892976139
12.664396            0.401528767     0.892633754   0.000245149099  -0.00013141143   0.000245149097  -0.00013141143      0.401460366      0.89276689
12.664424            0.401958187     0.892423247   0.000245468974 -0.000131744418   0.000245468973 -0.000131744418      0.401888193     0.892557262
12.664452            0.402387835     0.892212359   0.000245789267 -0.000132078268   0.000245789266 -0.000132078267      0.402316248     0.892347254
12.66448             0.402817712     0.892001088   0.000246109978  -0.00013241298   0.000246109977  -0.00013241298      0.402744531     0.892136867
12.664508            0.403247817     0.891789434   0.000246431106 -0.000132748559   0.000246431105 -0.000132748558      0.403173042     0.891926099
12.664536            0.403678152     0.891577396   0.000246752653 -0.000133085006   0.000246752652 -0.000133085005      0.403601781      0.89171495
12.664564            0.404108715     0.891364974   0.000247074618 -0.000133422324   0.000247074617 -0.000133422323      0.404030748     0.891503419
12.664592            0.404539507     0.891152166   0.000247397002 -0.000133760515   0.000247397001 -0.000133760514      0.404459944     0.891291505
12.66462             0.404970528     0.890938973   0.000247719806 -0.000134099581   0.000247719804 -0.000134099581      0.404889368     0.891079208
12.664648            0.405401779     0.890725393   0.000248043028 -0.000134439526   0.000248043027 -0.000134439525      0.405319019     0.890866527
12.664676            0.405833258     0.890511427   0.000248366671 -0.000134780351    0.00024836667  -0.00013478035        0.4057489     0.890653461
12.664704            0.406264967     0.890297072   0.000248690733 -0.000135122058   0.000248690732 -0.000135122057      0.406179009      0.89044001
12.664732            0.406696905     0.890082328   0.000249015216 -0.000135464651   0.000249015215  -0.00013546465      0.406609346     0.890226173
12.66476             0.407129072     0.889867196    0.00024934012 -0.000135808131   0.000249340118  -0.00013580813      0.407039912     0.890011949
12.664788            0.407561469     0.889651673   0.000249665444 -0.000136152501   0.000249665443   -0.0001361525      0.407470707     0.889797337
12.664816            0.407994095      0.88943576   0.000249991189 -0.000136497764   0.000249991188 -0.000136497763       0.40790173     0.889582338
12.664844            0.408426951     0.889219455   0.000250317356 -0.000136843922   0.000250317355 -0.000136843921      0.408332982      0.88936695
12.664872            0.408860036     0.889002759   0.000250643945 -0.000137190977   0.000250643944 -0.000137190976      0.408764464     0.889151172
12.6649              0.409293351      0.88878567   0.000250970956 -0.000137538932   0.000250970955 -0.000137538932      0.409196174     0.888935005
12.664928            0.409726896     0.888568187   0.000251298389  -0.00013788779   0.000251298388 -0.000137887789      0.409628113     0.888718446
12.664956            0.410160671      0.88835031   0.000251626245 -0.000138237552   0.000251626244 -0.000138237552      0.410060281     0.888501496
12.664984            0.410594675     0.888132039   0.000251954524 -0.000138588222   0.000251954522 -0.000138588221      0.410492678     0.888284154
12.665012             0.41102891     0.887913372   0.000252283226 -0.000138939802   0.000252283224 -0.000138939801      0.410925304     0.888066419
12.66504             0.411463374     0.887694309   0.000252612351 -0.000139292294    0.00025261235 -0.000139292293       0.41135816      0.88784829
12.665068            0.411898068     0.887474849     0.0002529419 -0.000139645701   0.000252941899   -0.0001396457      0.411791245     0.887629767
12.665096            0.412332993     0.887254991   0.000253271873 -0.000140000025   0.000253271872 -0.000140000024       0.41222456     0.887410849
12.665124            0.412768148     0.887034735    0.00025360227  -0.00014035527   0.000253602269 -0.000140355269      0.412658103     0.887191535
12.665152            0.413203533     0.886814081   0.000253933092 -0.000140711436   0.000253933091 -0.000140711435      0.413091877     0.886971825
12.66518             0.413639148     0.886593026   0.000254264339 -0.000141068528   0.000254264338 -0.000141068527       0.41352588     0.886751718
12.665208            0.414074993     0.886371571   0.000254596011 -0.000141426548    0.00025459601 -0.000141426547      0.413960112     0.886531214
12.665236            0.414511069     0.886149715   0.000254928108 -0.000141785497   0.000254928107 -0.000141785496      0.414394575      0.88631031
12.665264            0.414947376     0.885927458   0.000255260631 -0.000142145379    0.00025526063 -0.000142145378      0.414829267     0.886089008
12.665292            0.415383913     0.885704797    0.00025559358 -0.000142506197   0.000255593578 -0.000142506196      0.415264189     0.885867305
12.66532              0.41582068     0.885481734   0.000255926955 -0.000142867952   0.000255926953 -0.000142867951       0.41569934     0.885645202
12.665348            0.416257679     0.885258266   0.000256260756 -0.000143230648   0.000256260754 -0.000143230647      0.416134722     0.885422698
12.665376            0.416694908     0.885034394   0.000256594984 -0.000143594287   0.000256594982 -0.000143594286      0.416570334     0.885199792
12.665404            0.417132367     0.884810117   0.000256929638 -0.000143958871   0.000256929637  -0.00014395887      0.417006175     0.884976483