! TOUCHSTONE file generated by CST MICROWAVE STUDIO
! Date and time: Wed Jul 31 12:56:37 2024
! Project name: WaveGuide_BPF-Ver4.1_U-shape_Ku_T3_C4_CWA_2.cst
! Parameters = {cavity_h=16; cavity_l0=10; cavity_l1=15.1976; cavity_l2=16.8833; cavity_l3=17.0781; cavity_l4=17.2636; cavity_l5=17.0892; cavity_l6=17.6375; cavity_r=2.5; cavity_screw_l=0.5; cavity_screw_r=1.5; cavity_w=8; iris_h00=0; iris_h01=8.8184; iris_h112=0; iris_h12=5.5931; iris_h211=3.6516; iris_h23=5.2084; iris_h310=3.9725; iris_h34=5.0852; iris_h45=4.9248; iris_h49=4.6115; iris_h56=4.7947; iris_h58=4.4445; iris_h67=6.5855; iris_rx=0.1; iris_screw_l=0.5; iris_screw_r=1.5; iris_shift00=0; iris_shift112=0; iris_shift211=3.5; iris_shift310=0; iris_shift49=0; iris_shift58=3.5; iris_shift67=3.5; iris_tx=4.5; iris_tz=4.5; iris_w00=0; iris_w112=0; iris_w211=4; iris_w310=3.9725; iris_w49=4.6115; iris_w58=4; iris_w67=4; mesh_cavity=5; mesh_iris=7; mesh_screw=7; order=12; reset_all=0; sigma=4.8e+07}
! Header version: 2018
! Port assignment regex: !\s*Touchstone port\s*([0-9]+)\s*=\s*(CST MWS port|CST DS port)\s*([0-9]+|Zmin|Zmax)\s*\(\"(.*)\"\)(\s*mode\s*([0-9]+))?.*
! Touchstone port assignment:
! Touchstone port 1 = CST MWS port 1 ("")
! Touchstone port 2 = CST MWS port 2 ("")
# GHz S RI R 50
12.66                0.325947083      0.92430217   0.000337435295 -0.000150294072   0.000337435295 -0.000150294072      0.327313852     0.923948501
12.660028            0.326362603     0.924138755   0.000337978043 -0.000150734549   0.000337978044 -0.000150734549      0.327727128      0.92378534
12.660056            0.326778499     0.923974965   0.000338521773   -0.0001511764   0.000338521773   -0.0001511764      0.328140735     0.923621822
12.660084            0.327194727     0.923810816   0.000339066495 -0.000151619617   0.000339066495 -0.000151619617      0.328554647     0.923457956
12.660112            0.327611242     0.923646322   0.000339612222 -0.000152064194   0.000339612222 -0.000152064194      0.328968838      0.92329375
12.66014             0.328028001     0.923481499   0.000340158966 -0.000152510127   0.000340158967 -0.000152510127      0.329383282     0.923129212
12.660168            0.328445003     0.923316344    0.00034070673 -0.000152957418    0.00034070673 -0.000152957418      0.329797981     0.922964342
12.660196            0.328862279     0.923150849   0.000341255507 -0.000153406081   0.000341255508 -0.000153406081      0.330212951     0.922799133
12.660224            0.329279828     0.922985011   0.000341805301 -0.000153856119   0.000341805301 -0.000153856119      0.330628193     0.922633584
12.660252            0.329697651     0.922818829   0.000342356113 -0.000154307537   0.000342356113 -0.000154307537      0.331043707     0.922467694
12.66028             0.330115748     0.922652305   0.000342907945 -0.000154760341   0.000342907945  -0.00015476034      0.331459493     0.922301464
12.660308            0.330534119     0.922485435   0.000343460799 -0.000155214533   0.000343460799 -0.000155214533      0.331875551     0.922134891
12.660336            0.330952765     0.922318221   0.000344014677 -0.000155670121   0.000344014677 -0.000155670121      0.332291882     0.921967976
12.660364            0.331371686     0.922150661   0.000344569581 -0.000156127107   0.000344569582 -0.000156127107      0.332708486     0.921800718
12.660392            0.331790882     0.921982754   0.000345125513 -0.000156585497   0.000345125514 -0.000156585497      0.333125363     0.921633116
12.66042             0.332210354       0.9218145   0.000345682475 -0.000157045296   0.000345682476 -0.000157045296      0.333542514     0.921465169
12.660448              0.3326301     0.921645899   0.000346240469 -0.000157506508   0.000346240469 -0.000157506508      0.333959938     0.921296877
12.660476            0.333050123     0.921476948   0.000346799497 -0.000157969138   0.000346799497 -0.000157969138      0.334377636     0.921128239
12.660504            0.333470422     0.921307648    0.00034735956 -0.000158433192   0.000347359561 -0.000158433192      0.334795608     0.920959254
12.660532            0.333890997     0.921137998   0.000347920662 -0.000158898673   0.000347920662 -0.000158898673      0.335213854     0.920789922
12.66056             0.334311849     0.920967997   0.000348482803 -0.000159365587   0.000348482803 -0.000159365587      0.335632375     0.920620242
12.660588            0.334732977     0.920797645   0.000349045986 -0.000159833938   0.000349045986 -0.000159833938      0.336051171     0.920450212
12.660616            0.335154382      0.92062694   0.000349610213 -0.000160303732   0.000349610213 -0.000160303732      0.336470242     0.920279833
12.660644            0.335576065     0.920455882   0.000350175485 -0.000160774973   0.000350175485 -0.000160774973      0.336889589     0.920109104
12.660672            0.335998025     0.920284471   0.000350741805 -0.000161247666   0.000350741806 -0.000161247666      0.337309211     0.919938023
12.6607              0.336420263     0.920112705   0.000351309175 -0.000161721817   0.000351309176 -0.000161721817      0.337729108     0.919766591
12.660728            0.336842779     0.919940584   0.000351877597  -0.00016219743   0.000351877597  -0.00016219743      0.338149282     0.919594806
12.660756            0.337265573     0.919768107   0.000352447073  -0.00016267451   0.000352447073  -0.00016267451      0.338569732     0.919422668
12.660784            0.337688646     0.919595273   0.000353017604 -0.000163153062   0.000353017604 -0.000163153062      0.338990459     0.919250176
12.660812            0.338111998     0.919422082   0.000353589193 -0.000163633092   0.000353589193 -0.000163633091      0.339411462     0.919077329
12.66084             0.338535628     0.919248533   0.000354161842 -0.000164114603   0.000354161842 -0.000164114603      0.339832743     0.918904127
12.660868            0.338959538     0.919074625   0.000354735553 -0.000164597602   0.000354735553 -0.000164597602      0.340254301     0.918730569
12.660896            0.339383727     0.918900358   0.000355310328 -0.000165082094   0.000355310328 -0.000165082094      0.340676136     0.918556653
12.660924            0.339808196     0.918725729   0.000355886168 -0.000165568083   0.000355886168 -0.000165568083      0.341098249     0.918382381
12.660952            0.340232945      0.91855074   0.000356463076 -0.000166055574   0.000356463077 -0.000166055574       0.34152064     0.918207749
12.66098             0.340657974     0.918375389   0.000357041055 -0.000166544573   0.000357041055 -0.000166544573       0.34194331     0.918032759
12.661008            0.341083284     0.918199676   0.000357620105 -0.000167035086   0.000357620105 -0.000167035086      0.342366257     0.917857409
12.661036            0.341508874     0.918023599   0.000358200229 -0.000167527116   0.000358200229 -0.000167527116      0.342789484     0.917681698
12.661064            0.341934745     0.917847158   0.000358781429  -0.00016802067   0.000358781429 -0.000168020669       0.34321299     0.917505626
12.661092            0.342360897     0.917670352   0.000359363707 -0.000168515752   0.000359363707 -0.000168515752      0.343636775     0.917329191
12.66112             0.342787331      0.91749318   0.000359947065 -0.000169012368   0.000359947065 -0.000169012367      0.344060839     0.917152394
12.661148            0.343214047     0.917315642   0.000360531506 -0.000169510522   0.000360531506 -0.000169510522      0.344485183     0.916975233
12.661176            0.343641044     0.917137737    0.00036111703 -0.000170010222    0.00036111703 -0.000170010221      0.344909807     0.916797708
12.661204            0.344068324     0.916959464   0.000361703641  -0.00017051147   0.000361703641  -0.00017051147      0.345334711     0.916619818
12.661232            0.344495886     0.916780822    0.00036229134 -0.000171014274    0.00036229134 -0.000171014274      0.345759896     0.916441561
12.66126             0.344923731      0.91660181   0.000362880129 -0.000171518638   0.000362880129 -0.000171518638      0.346185361     0.916262938
12.661288            0.345351858     0.916422429   0.000363470011 -0.000172024567   0.000363470011 -0.000172024567      0.346611108     0.916083948
12.661316            0.345780269     0.916242676   0.000364060987 -0.000172532068   0.000364060987 -0.000172532068      0.347037135      0.91590459
12.661344            0.346208963     0.916062552   0.000364653059 -0.000173041144    0.00036465306 -0.000173041144      0.347463444     0.915724862
12.661372            0.346637941     0.915882055   0.000365246231 -0.000173551803   0.000365246231 -0.000173551803      0.347890035     0.915544765
12.6614              0.347067203     0.915701185   0.000365840502 -0.000174064049   0.000365840502 -0.000174064049      0.348316908     0.915364297
12.661428            0.347496749     0.915519941   0.000366435877 -0.000174577887   0.000366435877 -0.000174577887      0.348744063     0.915183458
12.661456            0.347926579     0.915338322   0.000367032356 -0.000175093324   0.000367032356 -0.000175093324        0.3491715     0.915002247
12.661484            0.348356694     0.915156327   0.000367629942 -0.000175610364   0.000367629942 -0.000175610364       0.34959922     0.914820664
12.661512            0.348787094     0.914973956   0.000368228637 -0.000176129014   0.000368228637 -0.000176129014      0.350027223     0.914638706
12.66154             0.349217779     0.914791207   0.000368828443 -0.000176649278   0.000368828443 -0.000176649278      0.350455509     0.914456375
12.661568            0.349648749      0.91460808   0.000369429362 -0.000177171163   0.000369429362 -0.000177171163      0.350884078     0.914273668
12.661596            0.350080005     0.914424575   0.000370031396 -0.000177694674   0.000370031396 -0.000177694673      0.351312932     0.914090585
12.661624            0.350511547      0.91424069   0.000370634548 -0.000178219816   0.000370634548 -0.000178219816      0.351742069     0.913907125
12.661652            0.350943374     0.914056424   0.000371238818 -0.000178746595   0.000371238819 -0.000178746595       0.35217149     0.913723288
12.66168             0.351375489     0.913871778   0.000371844211 -0.000179275017   0.000371844211 -0.000179275017      0.352601195     0.913539073
12.661708             0.35180789     0.913686749   0.000372450726 -0.000179805087   0.000372450727 -0.000179805087      0.353031186     0.913354478
12.661736            0.352240577     0.913501337   0.000373058368 -0.000180336812   0.000373058368 -0.000180336812      0.353461461     0.913169504
12.661764            0.352673552     0.913315542   0.000373667137 -0.000180870197   0.000373667137 -0.000180870196      0.353892021     0.912984149
12.661792            0.353106814     0.913129362   0.000374277036 -0.000181405247   0.000374277036 -0.000181405247      0.354322867     0.912798412
12.66182             0.353540364     0.912942797   0.000374888067 -0.000181941968   0.000374888067 -0.000181941968      0.354753998     0.912612293
12.661848            0.353974202     0.912755846   0.000375500232 -0.000182480367   0.000375500232 -0.000182480367      0.355185415     0.912425791
12.661876            0.354408327     0.912568508   0.000376113533 -0.000183020449   0.000376113533 -0.000183020449      0.355617118     0.912238905
12.661904            0.354842741     0.912380783   0.000376727972 -0.000183562219   0.000376727972 -0.000183562219      0.356049108     0.912051634
12.661932            0.355277444     0.912192669   0.000377343552 -0.000184105684   0.000377343552 -0.000184105684      0.356481384     0.911863978
12.66196             0.355712436     0.912004165   0.000377960274  -0.00018465085   0.000377960274  -0.00018465085      0.356913947     0.911675936
12.661988            0.356147716     0.911815272   0.000378578141 -0.000185197722   0.000378578141 -0.000185197722      0.357346798     0.911487506
12.662016            0.356583286     0.911625987   0.000379197155 -0.000185746307   0.000379197155 -0.000185746307      0.357779935     0.911298688
12.662044            0.357019145     0.911436311   0.000379817317  -0.00018629661   0.000379817317  -0.00018629661       0.35821336     0.911109482
12.662072            0.357455295     0.911246242   0.000380438631 -0.000186848637   0.000380438631 -0.000186848637      0.358647073     0.910919886
12.6621              0.357891734     0.911055779   0.000381061097 -0.000187402394   0.000381061097 -0.000187402394      0.359081075     0.910729899
12.662128            0.358328464     0.910864923   0.000381684719 -0.000187957887   0.000381684719 -0.000187957887      0.359515364     0.910539521
12.662156            0.358765484     0.910673671   0.000382309498 -0.000188515123   0.000382309498 -0.000188515123      0.359949942     0.910348752
12.662184            0.359202795     0.910482023   0.000382935437 -0.000189074108   0.000382935437 -0.000189074107      0.360384809     0.910157589
12.662212            0.359640397     0.910289978   0.000383562538 -0.000189634846   0.000383562538 -0.000189634846      0.360819965     0.909966032
12.66224              0.36007829     0.910097536   0.000384190802 -0.000190197345   0.000384190802 -0.000190197345       0.36125541     0.909774081
12.662268            0.360516475     0.909904695   0.000384820232 -0.000190761611   0.000384820232 -0.000190761611      0.361691145     0.909581734
12.662296            0.360954952     0.909711455    0.00038545083  -0.00019132765   0.000385450831  -0.00019132765       0.36212717     0.909388992
12.662324            0.361393721     0.909517814   0.000386082599 -0.000191895467   0.000386082599 -0.000191895467      0.362563485     0.909195852
12.662352            0.361832782     0.909323773    0.00038671554  -0.00019246507    0.00038671554  -0.00019246507       0.36300009     0.909002314
12.66238             0.362272135      0.90912933   0.000387349656 -0.000193036464   0.000387349656 -0.000193036464      0.363436986     0.908808377
12.662408            0.362711782     0.908934484   0.000387984948 -0.000193609656   0.000387984948 -0.000193609656      0.363874172     0.908614041
12.662436            0.363151721     0.908739234   0.000388621419 -0.000194184652   0.000388621419 -0.000194184652       0.36431165     0.908419304
12.662464            0.363591954      0.90854358   0.000389259071 -0.000194761458   0.000389259071 -0.000194761458      0.364749419     0.908224166
12.662492             0.36403248      0.90834752   0.000389897907 -0.000195340081   0.000389897907 -0.000195340081      0.365187479     0.908028625
12.66252               0.3644733     0.908151055   0.000390537927 -0.000195920526   0.000390537927 -0.000195920526      0.365625832     0.907832682
12.662548            0.364914414     0.907954182   0.000391179135 -0.000196502801   0.000391179136 -0.000196502801      0.366064476     0.907636335
12.662576            0.365355822     0.907756901   0.000391821533 -0.000197086912   0.000391821534 -0.000197086912      0.366503413     0.907439582
12.662604            0.365797525     0.907559212   0.000392465123 -0.000197672864   0.000392465123 -0.000197672864      0.366942642     0.907242425
12.662632            0.366239523     0.907361113   0.000393109907 -0.000198260665   0.000393109907 -0.000198260665      0.367382164     0.907044861
12.66266             0.366681815     0.907162603   0.000393755887 -0.000198850321   0.000393755887 -0.000198850321      0.367821979     0.906846889
12.662688            0.367124403     0.906963682   0.000394403065 -0.000199441839   0.000394403066 -0.000199441839      0.368262087     0.906648509
12.662716            0.367567286     0.906764348   0.000395051444 -0.000200035224   0.000395051445 -0.000200035224      0.368702489      0.90644972
12.662744            0.368010466     0.906564602   0.000395701026 -0.000200630484   0.000395701026 -0.000200630484      0.369143185     0.906250521
12.662772            0.368453941     0.906364441   0.000396351813 -0.000201227625   0.000396351813 -0.000201227625      0.369584175     0.906050911
12.6628              0.368897712     0.906163865   0.000397003807 -0.000201826654   0.000397003807 -0.000201826654      0.370025459      0.90585089
12.662828             0.36934178     0.905962874    0.00039765701 -0.000202427578    0.00039765701 -0.000202427578      0.370467037     0.905650456
12.662856            0.369786145     0.905761466   0.000398311424 -0.000203030402   0.000398311424 -0.000203030402      0.370908911     0.905449608
12.662884            0.370230806      0.90555964   0.000398967052 -0.000203635134   0.000398967053 -0.000203635134      0.371351079     0.905248346
12.662912            0.370675765     0.905357395   0.000399623897  -0.00020424178   0.000399623897  -0.00020424178      0.371793542     0.905046669
12.66294             0.371121022     0.905154731   0.000400281959 -0.000204850348   0.000400281959 -0.000204850348      0.372236302     0.904844575
12.662968            0.371566576     0.904951647   0.000400941241 -0.000205460843   0.000400941241 -0.000205460843      0.372679356     0.904642065
12.662996            0.372012428     0.904748142   0.000401601746 -0.000206073273   0.000401601746 -0.000206073273      0.373122707     0.904439136
12.663024            0.372458578     0.904544214   0.000402263476 -0.000206687644   0.000402263476 -0.000206687644      0.373566355     0.904235789
12.663052            0.372905027     0.904339863   0.000402926432 -0.000207303964   0.000402926432 -0.000207303964      0.374010298     0.904032021
12.66308             0.373351775     0.904135089   0.000403590618 -0.000207922238   0.000403590618 -0.000207922238      0.374454539     0.903827834
12.663108            0.373798821     0.903929889   0.000404256034 -0.000208542475   0.000404256035 -0.000208542475      0.374899076     0.903623224
12.663136            0.374246167     0.903724264   0.000404922685 -0.000209164681   0.000404922685 -0.000209164681      0.375343911     0.903418192
12.663164            0.374693812     0.903518212   0.000405590571 -0.000209788862   0.000405590571 -0.000209788862      0.375789043     0.903212737
12.663192            0.375141757     0.903311732   0.000406259695 -0.000210415027   0.000406259695 -0.000210415027      0.376234473     0.903006857
12.66322             0.375590002     0.903104824   0.000406930059 -0.000211043181   0.000406930059 -0.000211043181      0.376680201     0.902800553
12.663248            0.376038547     0.902897486   0.000407601665 -0.000211673332   0.000407601665 -0.000211673332      0.377126227     0.902593822
12.663276            0.376487393     0.902689718   0.000408274516 -0.000212305487   0.000408274516 -0.000212305487      0.377572552     0.902386664
12.663304            0.376936539     0.902481518   0.000408948614 -0.000212939652   0.000408948614 -0.000212939652      0.378019175     0.902179078
12.663332            0.377385986     0.902272886    0.00040962396 -0.000213575836    0.00040962396 -0.000213575836      0.378466097     0.901971063
12.66336             0.377835735     0.902063821   0.000410300558 -0.000214214046   0.000410300558 -0.000214214045      0.378913319     0.901762618
12.663388            0.378285785     0.901854322   0.000410978409 -0.000214854287    0.00041097841 -0.000214854287       0.37936084     0.901553743
12.663416            0.378736136     0.901644388   0.000411657516 -0.000215496568   0.000411657517 -0.000215496568      0.379808661     0.901344435
12.663444             0.37918679     0.901434017   0.000412337881 -0.000216140896   0.000412337881 -0.000216140896      0.380256782     0.901134696
12.663472            0.379637745      0.90122321   0.000413019506 -0.000216787278   0.000413019506 -0.000216787278      0.380705203     0.900924522
12.6635              0.380089003     0.901011964   0.000413702393 -0.000217435721   0.000413702394 -0.000217435721      0.381153924     0.900713914
12.663528            0.380540564      0.90080028   0.000414386545 -0.000218086233   0.000414386545 -0.000218086233      0.381602946     0.900502871
12.663556            0.380992428     0.900588156   0.000415071964  -0.00021873882   0.000415071964  -0.00021873882      0.382052269     0.900291391
12.663584            0.381444595     0.900375591   0.000415758652 -0.000219393491   0.000415758652 -0.000219393491      0.382501894     0.900079474
12.663612            0.381897065     0.900162585   0.000416446611 -0.000220050253   0.000416446611 -0.000220050253       0.38295182     0.899867119
12.66364             0.382349839     0.899949135   0.000417135843 -0.000220709113   0.000417135843 -0.000220709113      0.383402047     0.899654324
12.663668            0.382802917     0.899735242   0.000417826351 -0.000221370078   0.000417826352 -0.000221370078      0.383852576     0.899441089
12.663696            0.383256299     0.899520904   0.000418518138 -0.000222033156   0.000418518138 -0.000222033156      0.384303408     0.899227413
12.663724            0.383709986     0.899306121   0.000419211204 -0.000222698355   0.000419211204 -0.000222698355      0.384754542     0.899013295
12.663752            0.384163977     0.899090891   0.000419905553 -0.000223365682   0.000419905553 -0.000223365682      0.385205979     0.898798734
12.66378             0.384618273     0.898875213   0.000420601187 -0.000224035145   0.000420601187 -0.000224035145      0.385657718     0.898583729
12.663808            0.385072874     0.898659087   0.000421298107  -0.00022470675   0.000421298107  -0.00022470675      0.386109761     0.898368278
12.663836             0.38552778     0.898442512   0.000421996317 -0.000225380507   0.000421996317 -0.000225380507      0.386562108     0.898152382
12.663864            0.385982992     0.898225486   0.000422695818 -0.000226056422   0.000422695819 -0.000226056422      0.387014757     0.897936039
12.663892             0.38643851     0.898008008   0.000423396613 -0.000226734503   0.000423396613 -0.000226734503      0.387467711     0.897719248
12.66392             0.386894335     0.897790078   0.000424098704 -0.000227414759   0.000424098704 -0.000227414759      0.387920969     0.897502007
12.663948            0.387350465     0.897571694   0.000424802093 -0.000228097196   0.000424802093 -0.000228097196      0.388374532     0.897284317
12.663976            0.387806902     0.897352856   0.000425506783 -0.000228781822   0.000425506783 -0.000228781822      0.388828399     0.897066176
12.664004            0.388263646     0.897133562   0.000426212775 -0.000229468646   0.000426212775 -0.000229468645      0.389282571     0.896847584
12.664032            0.388720697     0.896913812   0.000426920072 -0.000230157674   0.000426920072 -0.000230157674      0.389737048     0.896628538
12.66406             0.389178056     0.896693605   0.000427628677 -0.000230848916   0.000427628677 -0.000230848916       0.39019183     0.896409038
12.664088            0.389635722     0.896472939    0.00042833859 -0.000231542378   0.000428338591 -0.000231542378      0.390646918     0.896189084
12.664116            0.390093696     0.896251813   0.000429049816  -0.00023223807   0.000429049816  -0.00023223807      0.391102312     0.895968674
12.664144            0.390551978     0.896030227   0.000429762356 -0.000232935998   0.000429762356 -0.000232935998      0.391558012     0.895747807
12.664172            0.391010568      0.89580818   0.000430476211 -0.000233636171   0.000430476212 -0.000233636171      0.392014019     0.895526482
12.6642              0.391469467      0.89558567   0.000431191386 -0.000234338596   0.000431191386 -0.000234338596      0.392470332     0.895304698
12.664228            0.391928674     0.895362696   0.000431907881 -0.000235043283   0.000431907881 -0.000235043283      0.392926952     0.895082454
12.664256            0.392388191     0.895139258   0.000432625699 -0.000235750238   0.000432625699 -0.000235750238      0.393383879     0.894859749
12.664284            0.392848017     0.894915354   0.000433344842 -0.000236459471   0.000433344842 -0.000236459471      0.393841113     0.894636583
12.664312            0.393308153     0.894690984   0.000434065313 -0.000237170988   0.000434065313 -0.000237170988      0.394298655     0.894412953
12.66434             0.393768598     0.894466146   0.000434787114 -0.000237884799   0.000434787114 -0.000237884799      0.394756505      0.89418886
12.664368            0.394229354     0.894240839   0.000435510246 -0.000238600912   0.000435510246 -0.000238600912      0.395214663     0.893964302
12.664396            0.394690419     0.894015063   0.000436234713 -0.000239319335   0.000436234713 -0.000239319335      0.395673129     0.893739277
12.664424            0.395151795     0.893788815   0.000436960517 -0.000240040076   0.000436960517 -0.000240040076      0.396131904     0.893513786
12.664452            0.395613482     0.893562096   0.000437687659 -0.000240763143    0.00043768766 -0.000240763143      0.396590988     0.893287827
12.66448              0.39607548     0.893334905   0.000438416143 -0.000241488545   0.000438416143 -0.000241488545       0.39705038     0.893061398
12.664508            0.396537789     0.893107239    0.00043914597 -0.000242216291    0.00043914597 -0.000242216291      0.397510082       0.8928345
12.664536             0.39700041     0.892879098   0.000439877143 -0.000242946388   0.000439877143 -0.000242946388      0.397970094      0.89260713
12.664564            0.397463343     0.892650482   0.000440609663 -0.000243678845   0.000440609663 -0.000243678845      0.398430415     0.892379288
12.664592            0.397926587     0.892421388   0.000441343534 -0.000244413671   0.000441343534 -0.000244413671      0.398891046     0.892150973
12.66462             0.398390144     0.892191816   0.000442078757 -0.000245150874   0.000442078757 -0.000245150874      0.399351988     0.891922183
12.664648            0.398854013     0.891961765   0.000442815335 -0.000245890463   0.000442815335 -0.000245890463       0.39981324     0.891692918
12.664676            0.399318195     0.891731234    0.00044355327 -0.000246632446    0.00044355327 -0.000246632446      0.400274803     0.891463177
12.664704            0.399782689     0.891500222   0.000444292564 -0.000247376832   0.000444292564 -0.000247376832      0.400736676     0.891232958
12.664732            0.400247497     0.891268727    0.00044503322 -0.000248123629    0.00044503322 -0.000248123629      0.401198861     0.891002261
12.66476             0.400712618     0.891036749   0.000445775239 -0.000248872847   0.000445775239 -0.000248872847      0.401661358     0.890771084
12.664788            0.401178053     0.890804286   0.000446518625 -0.000249624494   0.000446518625 -0.000249624494      0.402124166     0.890539426
12.664816            0.401643802     0.890571337   0.000447263379 -0.000250378578   0.000447263379 -0.000250378578      0.402587286     0.890307287
12.664844            0.402109865     0.890337902   0.000448009503 -0.000251135109   0.000448009503 -0.000251135109      0.403050719     0.890074665
12.664872            0.402576243     0.890103979   0.000448757001 -0.000251894096   0.000448757001 -0.000251894096      0.403514464     0.889841559
12.6649              0.403042935     0.889869568   0.000449505873 -0.000252655546   0.000449505873 -0.000252655546      0.403978521     0.889607968
12.664928            0.403509942     0.889634666   0.000450256123  -0.00025341947   0.000450256123  -0.00025341947      0.404442892     0.889373891
12.664956            0.403977264     0.889399274   0.000451007753 -0.000254185876   0.000451007753 -0.000254185876      0.404907575     0.889139327
12.664984            0.404444901     0.889163389   0.000451760764 -0.000254954773   0.000451760764 -0.000254954773      0.405372573     0.888904275
12.665012            0.404912854     0.888927011    0.00045251516 -0.000255726171    0.00045251516 -0.000255726171      0.405837883     0.888668734
12.66504             0.405381123     0.888690138   0.000453270942 -0.000256500077   0.000453270942 -0.000256500077      0.406303508     0.888432702
12.665068            0.405849708     0.888452771   0.000454028113 -0.000257276502   0.000454028113 -0.000257276502      0.406769447     0.888196178
12.665096            0.406318609     0.888214906   0.000454786675 -0.000258055454   0.000454786675 -0.000258055454        0.4072357     0.887959162
12.665124            0.406787827     0.887976544   0.000455546631 -0.000258836942   0.000455546631 -0.000258836942      0.407702267     0.887721653
12.665152            0.407257362     0.887737683   0.000456307981 -0.000259620976   0.000456307982 -0.000259620976       0.40816915     0.887483648
12.66518             0.407727213     0.887498323    0.00045707073 -0.000260407566    0.00045707073 -0.000260407566      0.408636348     0.887245148
12.665208            0.408197382     0.887258461   0.000457834879 -0.000261196719   0.000457834879 -0.000261196719      0.409103861      0.88700615
12.665236            0.408667868     0.887018097    0.00045860043 -0.000261988446    0.00045860043 -0.000261988446      0.409571689     0.886766655
12.665264            0.409138672      0.88677723   0.000459367386 -0.000262782756   0.000459367386 -0.000262782756      0.410039834      0.88652666
12.665292            0.409609794     0.886535858   0.000460135749 -0.000263579658   0.000460135749 -0.000263579658      0.410508294     0.886286165
12.66532             0.410081235     0.886293981    0.00046090552 -0.000264379162   0.000460905521 -0.000264379162      0.410977071     0.886045168
12.665348            0.410552993     0.886051597   0.000461676704 -0.000265181277   0.000461676704 -0.000265181277      0.411446164     0.885803669
12.665376            0.411025071     0.885808706   0.000462449301 -0.000265986013   0.000462449301 -0.000265986013      0.411915574     0.885561666
12.665404            0.411497467     0.885565305   0.000463223313 -0.000266793378   0.000463223314 -0.000266793378      0.412385301     0.885319158