! TOUCHSTONE file generated by CST MICROWAVE STUDIO
! Date and time: Wed Jul 31 12:59:45 2024
! Project name: WaveGuide_BPF-Ver4.1_U-shape_Ku_T3_C4_CWA_2.cst
! Parameters = {cavity_h=16; cavity_l0=10; cavity_l1=15.1943; cavity_l2=16.8028; cavity_l3=17.1314; cavity_l4=17.2284; cavity_l5=17.1281; cavity_l6=17.6007; cavity_r=2.5; cavity_screw_l=0.5; cavity_screw_r=1.5; cavity_w=8; iris_h00=0; iris_h01=8.8069; iris_h112=0; iris_h12=5.594; iris_h211=3.6668; iris_h23=5.208; iris_h310=3.976; iris_h34=5.0909; iris_h45=4.9182; iris_h49=4.626; iris_h56=4.8025; iris_h58=4.4382; iris_h67=6.5727; iris_rx=0.1; iris_screw_l=0.5; iris_screw_r=1.5; iris_shift00=0; iris_shift112=0; iris_shift211=3.5; iris_shift310=0; iris_shift49=0; iris_shift58=3.5; iris_shift67=3.5; iris_tx=4.5; iris_tz=4.5; iris_w00=0; iris_w112=0; iris_w211=4; iris_w310=3.976; iris_w49=4.626; iris_w58=4; iris_w67=4; mesh_cavity=5; mesh_iris=7; mesh_screw=7; order=12; reset_all=0; sigma=4.8e+07}
! Header version: 2018
! Port assignment regex: !\s*Touchstone port\s*([0-9]+)\s*=\s*(CST MWS port|CST DS port)\s*([0-9]+|Zmin|Zmax)\s*\(\"(.*)\"\)(\s*mode\s*([0-9]+))?.*
! Touchstone port assignment:
! Touchstone port 1 = CST MWS port 1 ("")
! Touchstone port 2 = CST MWS port 2 ("")
# GHz S RI R 50
12.66                 0.24955722     0.951285056   0.000146255716 -4.80585083e-05   0.000146255715 -4.80585079e-05      0.249898804     0.951258803
12.660028            0.249907785     0.951182528   0.000146437183 -4.81810052e-05   0.000146437182 -4.81810048e-05      0.250248363     0.951156464
12.660056            0.250258561     0.951079792   0.000146618892 -4.83038019e-05   0.000146618891 -4.83038015e-05      0.250598179     0.951053906
12.660084             0.25060954     0.950976849   0.000146800844 -4.84268967e-05   0.000146800843 -4.84268963e-05      0.250948223     0.950951135
12.660112            0.250960715     0.950873702   0.000146983042 -4.85502879e-05   0.000146983041 -4.85502875e-05       0.25129847     0.950848159
12.66014             0.251312079     0.950770352   0.000147165487 -4.86739739e-05   0.000147165486 -4.86739736e-05      0.251648891     0.950744985
12.660168            0.251663632     0.950666798   0.000147348179 -4.87979554e-05   0.000147348178 -4.87979551e-05      0.251999488     0.950641611
12.660196            0.252015379     0.950563039   0.000147531119 -4.89222348e-05   0.000147531118 -4.89222344e-05      0.252350277     0.950538033
12.660224             0.25236732     0.950459075   0.000147714306 -4.90468128e-05   0.000147714305 -4.90468124e-05       0.25270126     0.950434251
12.660252            0.252719455     0.950354905    0.00014789774   -4.917169e-05   0.000147897739 -4.91716897e-05      0.253052437     0.950330263
12.66028             0.253071785     0.950250529   0.000148081422 -4.92968674e-05   0.000148081421  -4.9296867e-05      0.253403807     0.950226071
12.660308            0.253424309     0.950145947   0.000148265352 -4.94223456e-05   0.000148265351 -4.94223452e-05      0.253755372     0.950121673
12.660336            0.253777027     0.950041158    0.00014844953 -4.95481254e-05   0.000148449529  -4.9548125e-05       0.25410713     0.950017069
12.660364            0.254129941     0.949936161   0.000148633957 -4.96742074e-05   0.000148633956 -4.96742071e-05      0.254459082     0.949912259
12.660392            0.254483049     0.949830958   0.000148818633 -4.98005926e-05   0.000148818632 -4.98005922e-05      0.254811229     0.949807243
12.66042             0.254836353     0.949725546   0.000149003559 -4.99272816e-05   0.000149003558 -4.99272812e-05       0.25516357      0.94970202
12.660448            0.255189852     0.949619926   0.000149188733 -5.00542752e-05   0.000149188732 -5.00542748e-05      0.255516105     0.949596589
12.660476            0.255543546     0.949514098   0.000149374158 -5.01815741e-05   0.000149374157 -5.01815737e-05      0.255868836     0.949490951
12.660504            0.255897435     0.949408061   0.000149559833 -5.03091791e-05   0.000149559832 -5.03091788e-05      0.256221761     0.949385105
12.660532             0.25625152     0.949301815   0.000149745759  -5.0437091e-05   0.000149745758 -5.04370907e-05      0.256574881     0.949279051
12.66056             0.256605801     0.949195359   0.000149931935 -5.05653106e-05   0.000149931934 -5.05653102e-05      0.256928196     0.949172788
12.660588            0.256960278     0.949088694   0.000150118362 -5.06938385e-05   0.000150118361 -5.06938381e-05      0.257281706     0.949066316
12.660616            0.257314951     0.948981818   0.000150305041 -5.08226756e-05    0.00015030504 -5.08226752e-05      0.257635412     0.948959635
12.660644             0.25766982     0.948874732   0.000150491971 -5.09518226e-05    0.00015049197 -5.09518223e-05      0.257989313     0.948852745
12.660672            0.258024885     0.948767434   0.000150679153 -5.10812804e-05   0.000150679152   -5.108128e-05       0.25834341     0.948745644
12.6607              0.258380147     0.948659926   0.000150866588 -5.12110496e-05   0.000150866587 -5.12110492e-05      0.258697702     0.948638333
12.660728            0.258735606     0.948552206   0.000151054275 -5.13411311e-05   0.000151054274 -5.13411307e-05      0.259052191     0.948530812
12.660756            0.259091261     0.948444273   0.000151242215 -5.14715256e-05   0.000151242214 -5.14715252e-05      0.259406875     0.948423079
12.660784            0.259447113     0.948336129   0.000151430409 -5.16022339e-05   0.000151430408 -5.16022336e-05      0.259761756     0.948315135
12.660812            0.259803162     0.948227772   0.000151618855 -5.17332569e-05   0.000151618854 -5.17332565e-05      0.260116833      0.94820698
12.66084             0.260159408     0.948119202   0.000151807556 -5.18645952e-05   0.000151807555 -5.18645948e-05      0.260472107     0.948098612
12.660868            0.260515851     0.948010418    0.00015199651 -5.19962497e-05   0.000151996509 -5.19962493e-05      0.260827577     0.947990032
12.660896            0.260872492     0.947901421   0.000152185719 -5.21282211e-05   0.000152185718 -5.21282208e-05      0.261183244     0.947881239
12.660924            0.261229331     0.947792209   0.000152375183 -5.22605103e-05   0.000152375182 -5.22605099e-05      0.261539108     0.947772233
12.660952            0.261586367     0.947682784   0.000152564902  -5.2393118e-05   0.000152564901 -5.23931177e-05      0.261895169     0.947663013
12.66098             0.261943601     0.947573143   0.000152754876 -5.25260451e-05   0.000152754875 -5.25260447e-05      0.262251427      0.94755358
12.661008            0.262301033     0.947463287   0.000152945105 -5.26592923e-05   0.000152945104 -5.26592919e-05      0.262607882     0.947443932
12.661036            0.262658663     0.947353216   0.000153135591 -5.27928604e-05    0.00015313559   -5.279286e-05      0.262964535      0.94733407
12.661064            0.263016491     0.947242929   0.000153326332 -5.29267503e-05   0.000153326331 -5.29267499e-05      0.263321385     0.947223993
12.661092            0.263374518     0.947132425    0.00015351733 -5.30609626e-05   0.000153517329 -5.30609623e-05      0.263678433     0.947113701
12.66112             0.263732743     0.947021705   0.000153708585 -5.31954983e-05   0.000153708584  -5.3195498e-05      0.264035679     0.947003193
12.661148            0.264091167     0.946910768   0.000153900097 -5.33303582e-05   0.000153900096 -5.33303578e-05      0.264393123     0.946892469
12.661176            0.264449789     0.946799614   0.000154091866  -5.3465543e-05   0.000154091865 -5.34655426e-05      0.264750765     0.946781529
12.661204            0.264808611     0.946688242   0.000154283893 -5.36010535e-05   0.000154283892 -5.36010531e-05      0.265108606     0.946670372
12.661232            0.265167632     0.946576652   0.000154476178 -5.37368906e-05   0.000154476177 -5.37368903e-05      0.265466645     0.946558998
12.66126             0.265526852     0.946464844   0.000154668722 -5.38730552e-05   0.000154668721 -5.38730548e-05      0.265824882     0.946447407
12.661288            0.265886271     0.946352816   0.000154861524 -5.40095479e-05   0.000154861523 -5.40095475e-05      0.266183318     0.946335598
12.661316             0.26624589      0.94624057   0.000155054584 -5.41463696e-05   0.000155054583 -5.41463692e-05      0.266541953      0.94622357
12.661344            0.266605709     0.946128104   0.000155247904 -5.42835212e-05   0.000155247903 -5.42835208e-05      0.266900787     0.946111324
12.661372            0.266965727     0.946015418   0.000155441484 -5.44210034e-05   0.000155441483  -5.4421003e-05       0.26725982      0.94599886
12.6614              0.267325945     0.945902512   0.000155635323 -5.45588171e-05   0.000155635322 -5.45588167e-05      0.267619052     0.945886176
12.661428            0.267686363     0.945789386   0.000155829422 -5.46969632e-05   0.000155829421 -5.46969628e-05      0.267978483     0.945773272
12.661456            0.268046982     0.945676038   0.000156023782 -5.48354423e-05   0.000156023781  -5.4835442e-05      0.268338115     0.945660149
12.661484            0.268407801     0.945562469   0.000156218403 -5.49742555e-05   0.000156218401 -5.49742551e-05      0.268697945     0.945546805
12.661512             0.26876882     0.945448679   0.000156413284 -5.51134035e-05   0.000156413283 -5.51134031e-05      0.269057976      0.94543324
12.66154              0.26913004     0.945334666   0.000156608427 -5.52528871e-05   0.000156608426 -5.52528867e-05      0.269418207     0.945319454
12.661568            0.269491461     0.945220431   0.000156803831 -5.53927072e-05    0.00015680383 -5.53927068e-05      0.269778637     0.945205447
12.661596            0.269853082     0.945105973   0.000156999497 -5.55328646e-05   0.000156999496 -5.55328642e-05      0.270139268     0.945091218
12.661624            0.270214905     0.944991291   0.000157195425 -5.56733602e-05   0.000157195424 -5.56733598e-05      0.270500099     0.944976767
12.661652            0.270576929     0.944876386   0.000157391616 -5.58141948e-05   0.000157391615 -5.58141944e-05      0.270861131     0.944862093
12.66168             0.270939154     0.944761258    0.00015758807 -5.59553693e-05   0.000157588069 -5.59553689e-05      0.271222363     0.944747197
12.661708             0.27130158     0.944645905   0.000157784786 -5.60968844e-05   0.000157784785  -5.6096884e-05      0.271583797     0.944632077
12.661736            0.271664209     0.944530327   0.000157981766 -5.62387411e-05   0.000157981765 -5.62387407e-05      0.271945431     0.944516733
12.661764            0.272027039     0.944414524    0.00015817901 -5.63809402e-05   0.000158179009 -5.63809399e-05      0.272307266     0.944401165
12.661792             0.27239007     0.944298495   0.000158376518 -5.65234826e-05   0.000158376517 -5.65234822e-05      0.272669302     0.944285373
12.66182             0.272753304     0.944182241    0.00015857429 -5.66663691e-05   0.000158574289 -5.66663687e-05       0.27303154     0.944169356
12.661848             0.27311674     0.944065761   0.000158772326 -5.68096006e-05   0.000158772325 -5.68096002e-05      0.273393979     0.944053114
12.661876            0.273480379     0.943949054   0.000158970628 -5.69531779e-05   0.000158970627 -5.69531775e-05       0.27375662     0.943936646
12.661904            0.273844219      0.94383212   0.000159169194 -5.70971019e-05   0.000159169193 -5.70971015e-05      0.274119462     0.943819953
12.661932            0.274208263     0.943714958   0.000159368026 -5.72413735e-05   0.000159368025 -5.72413731e-05      0.274482507     0.943703033
12.66196             0.274572509     0.943597569   0.000159567124 -5.73859936e-05   0.000159567123 -5.73859932e-05      0.274845753     0.943585886
12.661988            0.274936957     0.943479952   0.000159766488 -5.75309629e-05   0.000159766487 -5.75309625e-05      0.275209202     0.943468512
12.662016            0.275301609     0.943362106   0.000159966118 -5.76762824e-05   0.000159966117  -5.7676282e-05      0.275572853     0.943350911
12.662044            0.275666464     0.943244031   0.000160166015  -5.7821953e-05   0.000160166014 -5.78219526e-05      0.275936706     0.943233082
12.662072            0.276031523     0.943125727   0.000160366179 -5.79679755e-05   0.000160366178 -5.79679751e-05      0.276300762     0.943115024
12.6621              0.276396784     0.943007194    0.00016056661 -5.81143508e-05   0.000160566609 -5.81143504e-05      0.276665021     0.942996738
12.662128             0.27676225      0.94288843   0.000160767309 -5.82610798e-05   0.000160767308 -5.82610794e-05      0.277029483     0.942878223
12.662156            0.277127919     0.942769436   0.000160968275 -5.84081634e-05   0.000160968274  -5.8408163e-05      0.277394148     0.942759479
12.662184            0.277493791     0.942650211    0.00016116951 -5.85556024e-05   0.000161169509  -5.8555602e-05      0.277759015     0.942640505
12.662212            0.277859868     0.942530755   0.000161371013 -5.87033978e-05   0.000161371012 -5.87033974e-05      0.278124086       0.9425213
12.66224             0.278226149     0.942411067   0.000161572785 -5.88515504e-05   0.000161572784   -5.885155e-05      0.278489361     0.942401866
12.662268            0.278592634     0.942291147   0.000161774825 -5.90000612e-05   0.000161774824 -5.90000608e-05      0.278854839       0.9422822
12.662296            0.278959324     0.942170995   0.000161977136 -5.91489309e-05   0.000161977135 -5.91489305e-05      0.279220521     0.942162303
12.662324            0.279326218      0.94205061   0.000162179715 -5.92981607e-05   0.000162179714 -5.92981602e-05      0.279586407     0.942042174
12.662352            0.279693316     0.941929991   0.000162382565 -5.94477512e-05   0.000162382564 -5.94477508e-05      0.279952496     0.941921813
12.66238              0.28006062      0.94180914   0.000162585685 -5.95977034e-05   0.000162585684  -5.9597703e-05       0.28031879     0.941801219
12.662408            0.280428129     0.941688054   0.000162789075 -5.97480183e-05   0.000162789074 -5.97480179e-05      0.280685288     0.941680393
12.662436            0.280795842     0.941566734   0.000162992737 -5.98986968e-05   0.000162992736 -5.98986963e-05      0.281051991     0.941559333
12.662464            0.281163761     0.941445179   0.000163196669 -6.00497396e-05   0.000163196668 -6.00497392e-05      0.281418898      0.94143804
12.662492            0.281531885     0.941323389   0.000163400873 -6.02011478e-05   0.000163400872 -6.02011474e-05       0.28178601     0.941316513
12.66252             0.281900215     0.941201363   0.000163605348 -6.03529223e-05   0.000163605347 -6.03529219e-05      0.282153326     0.941194751
12.662548             0.28226875     0.941079102   0.000163810096  -6.0505064e-05   0.000163810095 -6.05050636e-05      0.282520848     0.941072754
12.662576            0.282637492     0.940956604   0.000164015115 -6.06575738e-05   0.000164015114 -6.06575734e-05      0.282888575     0.940950522
12.662604            0.283006439      0.94083387   0.000164220408 -6.08104526e-05   0.000164220407 -6.08104522e-05      0.283256507     0.940828054
12.662632            0.283375592     0.940710898   0.000164425973 -6.09637013e-05   0.000164425972 -6.09637009e-05      0.283624644     0.940705351
12.66266             0.283744951     0.940587688   0.000164631811 -6.11173209e-05    0.00016463181 -6.11173205e-05      0.283992987     0.940582411
12.662688            0.284114517     0.940464241   0.000164837923 -6.12713123e-05   0.000164837922 -6.12713119e-05      0.284361535     0.940459234
12.662716            0.284484289     0.940340556   0.000165044308 -6.14256764e-05   0.000165044307  -6.1425676e-05       0.28473029     0.940335819
12.662744            0.284854268     0.940216631   0.000165250968 -6.15804142e-05   0.000165250967 -6.15804138e-05       0.28509925     0.940212167
12.662772            0.285224454     0.940092468   0.000165457902 -6.17355266e-05   0.000165457901 -6.17355262e-05      0.285468417     0.940088277
12.6628              0.285594846     0.939968064    0.00016566511 -6.18910145e-05   0.000165665109 -6.18910141e-05      0.285837789     0.939964149
12.662828            0.285965446     0.939843421   0.000165872594 -6.20468789e-05   0.000165872593 -6.20468785e-05      0.286207368     0.939839781
12.662856            0.286336253     0.939718538   0.000166080352 -6.22031207e-05   0.000166080351 -6.22031202e-05      0.286577154     0.939715175
12.662884            0.286707267     0.939593413   0.000166288386 -6.23597408e-05   0.000166288385 -6.23597404e-05      0.286947146     0.939590328
12.662912            0.287078489     0.939468048   0.000166496696 -6.25167402e-05   0.000166496695 -6.25167398e-05      0.287317345     0.939465242
12.66294             0.287449918     0.939342441   0.000166705282 -6.26741199e-05   0.000166705281 -6.26741195e-05      0.287687751     0.939339915
12.662968            0.287821555     0.939216592   0.000166914145 -6.28318808e-05   0.000166914144 -6.28318803e-05      0.288058364     0.939214347
12.662996              0.2881934       0.9390905   0.000167123284 -6.29900238e-05   0.000167123283 -6.29900234e-05      0.288429184     0.939088538
12.663024            0.288565453     0.938964166     0.0001673327 -6.31485499e-05   0.000167332699 -6.31485495e-05      0.288800212     0.938962487
12.663052            0.288937714     0.938837588   0.000167542393 -6.33074601e-05   0.000167542392 -6.33074597e-05      0.289171447     0.938836194
12.66308             0.289310184     0.938710767   0.000167752364 -6.34667553e-05   0.000167752363 -6.34667549e-05       0.28954289     0.938709659
12.663108            0.289682862     0.938583701   0.000167962612 -6.36264365e-05   0.000167962611 -6.36264361e-05       0.28991454      0.93858288
12.663136            0.290055748     0.938456391   0.000168173139 -6.37865047e-05   0.000168173138 -6.37865042e-05      0.290286399     0.938455858
12.663164            0.290428843     0.938328836   0.000168383944 -6.39469607e-05   0.000168383943 -6.39469603e-05      0.290658465     0.938328593
12.663192            0.290802148     0.938201036   0.000168595028 -6.41078057e-05   0.000168595027 -6.41078053e-05       0.29103074     0.938201083
12.66322             0.291175661      0.93807299   0.000168806391 -6.42690405e-05    0.00016880639 -6.42690401e-05      0.291403223     0.938073328
12.663248            0.291549383     0.937944698   0.000169018033 -6.44306662e-05   0.000169018032 -6.44306658e-05      0.291775914     0.937945329
12.663276            0.291923315     0.937816159   0.000169229955 -6.45926837e-05   0.000169229954 -6.45926833e-05      0.292148814     0.937817084
12.663304            0.292297456     0.937687373   0.000169442156  -6.4755094e-05   0.000169442155 -6.47550935e-05      0.292521923     0.937688593
12.663332            0.292671806      0.93755834   0.000169654638  -6.4917898e-05   0.000169654637 -6.49178976e-05      0.292895241     0.937559856
12.66336             0.293046367     0.937429059     0.0001698674 -6.50810968e-05   0.000169867399 -6.50810964e-05      0.293268768     0.937430872
12.663388            0.293421137     0.937299529   0.000170080442 -6.52446914e-05   0.000170080441  -6.5244691e-05      0.293642504     0.937301641
12.663416            0.293796117     0.937169751   0.000170293766 -6.54086827e-05   0.000170293765 -6.54086823e-05      0.294016449     0.937172162
12.663444            0.294171308     0.937039724   0.000170507371 -6.55730718e-05    0.00017050737 -6.55730713e-05      0.294390604     0.937042436
12.663472            0.294546708     0.936909447   0.000170721258 -6.57378595e-05   0.000170721257 -6.57378591e-05      0.294764968     0.936912461
12.6635              0.294922319     0.936778921   0.000170935426  -6.5903047e-05   0.000170935425 -6.59030466e-05      0.295139542     0.936782237
12.663528            0.295298141     0.936648143   0.000171149877 -6.60686352e-05   0.000171149876 -6.60686348e-05      0.295514326     0.936651764
12.663556            0.295674173     0.936517115    0.00017136461 -6.62346252e-05   0.000171364609 -6.62346248e-05       0.29588932     0.936521042
12.663584            0.296050416     0.936385836   0.000171579625 -6.64010179e-05   0.000171579624 -6.64010174e-05      0.296264524     0.936390069
12.663612            0.296426871     0.936254305   0.000171794924 -6.65678143e-05   0.000171794923 -6.65678139e-05      0.296639938     0.936258846
12.66364             0.296803536     0.936122522   0.000172010506 -6.67350155e-05   0.000172010505  -6.6735015e-05      0.297015563     0.936127371
12.663668            0.297180412     0.935990486   0.000172226371 -6.69026224e-05    0.00017222637  -6.6902622e-05      0.297391399     0.935995646
12.663696              0.2975575     0.935858198   0.000172442521 -6.70706361e-05    0.00017244252 -6.70706357e-05      0.297767445     0.935863668
12.663724              0.2979348     0.935725656   0.000172658954 -6.72390576e-05   0.000172658953 -6.72390572e-05      0.298143702     0.935731439
12.663752            0.298312311      0.93559286   0.000172875672 -6.74078879e-05   0.000172875671 -6.74078875e-05       0.29852017     0.935598956
12.66378             0.298690034     0.935459809   0.000173092675 -6.75771281e-05   0.000173092673 -6.75771277e-05      0.298896849     0.935466221
12.663808            0.299067969     0.935326504   0.000173309962 -6.77467791e-05   0.000173309961 -6.77467787e-05      0.299273739     0.935333232
12.663836            0.299446116     0.935192944   0.000173527535  -6.7916842e-05   0.000173527534 -6.79168416e-05      0.299650841     0.935199989
12.663864            0.299824475     0.935059129   0.000173745393 -6.80873179e-05   0.000173745392 -6.80873174e-05      0.300028154     0.935066492
12.663892            0.300203047     0.934925057   0.000173963537 -6.82582077e-05   0.000173963536 -6.82582072e-05       0.30040568     0.934932739
12.66392             0.300581831     0.934790728   0.000174181967 -6.84295124e-05   0.000174181966  -6.8429512e-05      0.300783416     0.934798732
12.663948            0.300960828     0.934656143   0.000174400684 -6.86012332e-05   0.000174400683 -6.86012328e-05      0.301161365     0.934664469
12.663976            0.301340037     0.934521301   0.000174619687 -6.87733711e-05   0.000174619686 -6.87733707e-05      0.301539526     0.934529949
12.664004             0.30171946       0.9343862   0.000174838977 -6.89459271e-05   0.000174838976 -6.89459267e-05        0.3019179     0.934395173
12.664032            0.302099096     0.934250842   0.000175058554 -6.91189022e-05   0.000175058553 -6.91189018e-05      0.302296485      0.93426014
12.66406             0.302478944     0.934115224   0.000175278419 -6.92922976e-05   0.000175278418 -6.92922972e-05      0.302675283     0.934124849
12.664088            0.302859007     0.933979348   0.000175498571 -6.94661142e-05    0.00017549857 -6.94661138e-05      0.303054294     0.933989301
12.664116            0.303239282     0.933843212   0.000175719012 -6.96403531e-05   0.000175719011 -6.96403527e-05      0.303433518     0.933853494
12.664144            0.303619772     0.933706815    0.00017593974 -6.98150154e-05   0.000175939739  -6.9815015e-05      0.303812955     0.933717428
12.664172            0.304000475     0.933570159   0.000176160758 -6.99901022e-05   0.000176160757 -6.99901017e-05      0.304192604     0.933581104
12.6642              0.304381392     0.933433241   0.000176382064 -7.01656144e-05   0.000176382063 -7.01656139e-05      0.304572467     0.933444519
12.664228            0.304762523     0.933296062   0.000176603659 -7.03415531e-05   0.000176603658 -7.03415527e-05      0.304952544     0.933307674
12.664256            0.305143868     0.933158622   0.000176825544 -7.05179195e-05   0.000176825543 -7.05179191e-05      0.305332834     0.933170569
12.664284            0.305525428     0.933020919   0.000177047718 -7.06947146e-05   0.000177047717 -7.06947141e-05      0.305713337     0.933033202
12.664312            0.305907202     0.932882953   0.000177270183 -7.08719394e-05   0.000177270182  -7.0871939e-05      0.306094054     0.932895574
12.66434             0.306289191     0.932744724   0.000177492937 -7.10495951e-05   0.000177492936 -7.10495946e-05      0.306474986     0.932757684
12.664368            0.306671395     0.932606231   0.000177715982 -7.12276827e-05   0.000177715981 -7.12276822e-05      0.306856131     0.932619532
12.664396            0.307053813     0.932467475   0.000177939318 -7.14062033e-05   0.000177939317 -7.14062028e-05       0.30723749     0.932481117
12.664424            0.307436446     0.932328453   0.000178162945  -7.1585158e-05   0.000178162944 -7.15851575e-05      0.307619064     0.932342439
12.664452            0.307819295     0.932189167   0.000178386863 -7.17645478e-05   0.000178386862 -7.17645473e-05      0.308000853     0.932203496
12.66448             0.308202359     0.932049615   0.000178611073 -7.19443739e-05   0.000178611072 -7.19443734e-05      0.308382856      0.93206429
12.664508            0.308585638     0.931909798   0.000178835575 -7.21246373e-05   0.000178835573 -7.21246368e-05      0.308765073     0.931924819
12.664536            0.308969133     0.931769714   0.000179060368 -7.23053392e-05   0.000179060367 -7.23053387e-05      0.309147506     0.931785083
12.664564            0.309352844     0.931629363   0.000179285454 -7.24864806e-05   0.000179285453 -7.24864801e-05      0.309530154     0.931645081
12.664592            0.309736771     0.931488745   0.000179510833 -7.26680626e-05   0.000179510832 -7.26680622e-05      0.309913017     0.931504813
12.66462             0.310120913     0.931347859   0.000179736505 -7.28500864e-05   0.000179736504 -7.28500859e-05      0.310296095     0.931364279
12.664648            0.310505272     0.931206704   0.000179962469  -7.3032553e-05   0.000179962468 -7.30325526e-05      0.310679388     0.931223477
12.664676            0.310889847     0.931065282   0.000180188728 -7.32154636e-05   0.000180188727 -7.32154631e-05      0.311062898     0.931082408
12.664704            0.311274638      0.93092359    0.00018041528 -7.33988192e-05   0.000180415279 -7.33988188e-05      0.311446623     0.930941072
12.664732            0.311659646     0.930781628   0.000180642126  -7.3582621e-05   0.000180642125 -7.35826206e-05      0.311830564     0.930799467
12.66476             0.312044871     0.930639396   0.000180869266 -7.37668701e-05   0.000180869265 -7.37668697e-05      0.312214721     0.930657593
12.664788            0.312430313     0.930496894     0.0001810967 -7.39515676e-05   0.000181096699 -7.39515671e-05      0.312599094      0.93051545
12.664816            0.312815971      0.93035412    0.00018132443 -7.41367146e-05   0.000181324429 -7.41367142e-05      0.312983683     0.930373037
12.664844            0.313201847     0.930211075   0.000181552454 -7.43223123e-05   0.000181552453 -7.43223119e-05      0.313368489     0.930230354
12.664872             0.31358794     0.930067759   0.000181780774 -7.45083618e-05   0.000181780773 -7.45083613e-05      0.313753511       0.9300874
12.6649               0.31397425     0.929924169    0.00018200939 -7.46948641e-05   0.000182009388 -7.46948637e-05      0.314138751     0.929944175
12.664928            0.314360778     0.929780307   0.000182238301 -7.48818206e-05     0.0001822383 -7.48818201e-05      0.314524207     0.929800678
12.664956            0.314747524     0.929636171   0.000182467508 -7.50692321e-05   0.000182467507 -7.50692317e-05       0.31490988      0.92965691
12.664984            0.315134487     0.929491762   0.000182697012    -7.52571e-05    0.00018269701 -7.52570996e-05       0.31529577     0.929512868
12.665012            0.315521668     0.929347078   0.000182926812 -7.54454254e-05   0.000182926811 -7.54454249e-05      0.315681877     0.929368554
12.66504             0.315909068      0.92920212   0.000183156909 -7.56342094e-05   0.000183156908 -7.56342089e-05      0.316068202     0.929223966
12.665068            0.316296686     0.929056886   0.000183387303 -7.58234531e-05   0.000183387302 -7.58234526e-05      0.316454744     0.929079105
12.665096            0.316684522     0.928911376   0.000183617994 -7.60131577e-05   0.000183617993 -7.60131572e-05      0.316841504     0.928933968
12.665124            0.317072576      0.92876559   0.000183848983 -7.62033243e-05   0.000183848982 -7.62033238e-05      0.317228482     0.928788557
12.665152            0.317460849     0.928619527    0.00018408027 -7.63939542e-05   0.000184080269 -7.63939537e-05      0.317615678      0.92864287
12.66518             0.317849341     0.928473187   0.000184311855 -7.65850484e-05   0.000184311854 -7.65850479e-05      0.318003092     0.928496908
12.665208            0.318238052      0.92832657   0.000184543739 -7.67766081e-05   0.000184543738 -7.67766076e-05      0.318390724     0.928350669
12.665236            0.318626982     0.928179674   0.000184775921 -7.69686345e-05    0.00018477592 -7.69686341e-05      0.318778575     0.928204153
12.665264            0.319016131     0.928032499   0.000185008402 -7.71611288e-05   0.000185008401 -7.71611283e-05      0.319166644      0.92805736
12.665292              0.3194055     0.927885046   0.000185241182 -7.73540921e-05   0.000185241181 -7.73540916e-05      0.319554932     0.927910289
12.66532             0.319795088     0.927737312   0.000185474262 -7.75475256e-05   0.000185474261 -7.75475251e-05      0.319943438      0.92776294
12.665348            0.320184896     0.927589299   0.000185707641 -7.77414305e-05    0.00018570764   -7.774143e-05      0.320332164     0.927615312
12.665376            0.320574923     0.927441005    0.00018594132 -7.79358079e-05   0.000185941319 -7.79358074e-05      0.320721108     0.927467404
12.665404             0.32096517      0.92729243   0.000186175299  -7.8130659e-05   0.000186175298 -7.81306585e-05      0.321110272     0.927319217