! TOUCHSTONE file generated by CST MICROWAVE STUDIO
! Date and time: Wed Jul 31 13:05:54 2024
! Project name: WaveGuide_BPF-Ver4.1_U-shape_Ku_T3_C4_CWA_2.cst
! Parameters = {cavity_h=16; cavity_l0=10; cavity_l1=15.2143; cavity_l2=16.8076; cavity_l3=17.0819; cavity_l4=17.2275; cavity_l5=17.0959; cavity_l6=17.5924; cavity_r=2.5; cavity_screw_l=0.5; cavity_screw_r=1.5; cavity_w=8; iris_h00=0; iris_h01=8.8243; iris_h112=0; iris_h12=5.6008; iris_h211=3.6589; iris_h23=5.2078; iris_h310=3.9612; iris_h34=5.0683; iris_h45=4.9212; iris_h49=4.6166; iris_h56=4.8034; iris_h58=4.4306; iris_h67=6.5823; iris_rx=0.1; iris_screw_l=0.5; iris_screw_r=1.5; iris_shift00=0; iris_shift112=0; iris_shift211=3.5; iris_shift310=0; iris_shift49=0; iris_shift58=3.5; iris_shift67=3.5; iris_tx=4.5; iris_tz=4.5; iris_w00=0; iris_w112=0; iris_w211=4; iris_w310=3.9612; iris_w49=4.6166; iris_w58=4; iris_w67=4; mesh_cavity=5; mesh_iris=7; mesh_screw=7; order=12; reset_all=0; sigma=4.8e+07}
! Header version: 2018
! Port assignment regex: !\s*Touchstone port\s*([0-9]+)\s*=\s*(CST MWS port|CST DS port)\s*([0-9]+|Zmin|Zmax)\s*\(\"(.*)\"\)(\s*mode\s*([0-9]+))?.*
! Touchstone port assignment:
! Touchstone port 1 = CST MWS port 1 ("")
! Touchstone port 2 = CST MWS port 2 ("")
# GHz S RI R 50
12.66                0.391987594     0.897195241   0.000195119505 -0.000100170264   0.000195119505 -0.000100170263      0.385701314     0.900046552
12.660028            0.392412448     0.896993285     0.0001953604 -0.000100417314   0.000195360399 -0.000100417314        0.3861254     0.899848681
12.660056             0.39283759     0.896790938   0.000195601578 -0.000100664984   0.000195601577 -0.000100664984      0.386549732     0.899650441
12.660084             0.39326299     0.896588211   0.000195843043 -0.000100913272   0.000195843042 -0.000100913271      0.386974297     0.899451838
12.660112            0.393688619     0.896385117   0.000196084799 -0.000101162175   0.000196084798 -0.000101162175      0.387399086     0.899252875
12.66014             0.394114447     0.896181666   0.000196326851 -0.000101411693    0.00019632685 -0.000101411692      0.387824088     0.899053555
12.660168            0.394540475     0.895977859   0.000196569199 -0.000101661827   0.000196569198 -0.000101661826      0.388249303     0.898853879
12.660196            0.394966721     0.895773687    0.00019681184  -0.00010191258   0.000196811839 -0.000101912579      0.388674738     0.898653842
12.660224            0.395393187     0.895569148   0.000197054774 -0.000102163954   0.000197054774 -0.000102163954      0.389100393     0.898453445
12.660252            0.395819872     0.895364243   0.000197298002 -0.000102415952   0.000197298002 -0.000102415952      0.389526269     0.898252685
12.66028             0.396246777     0.895158971   0.000197541524 -0.000102668574   0.000197541524 -0.000102668574      0.389952364     0.898051564
12.660308              0.3966739      0.89495333    0.00019778534 -0.000102921822    0.00019778534 -0.000102921822      0.390378681      0.89785008
12.660336            0.397101243     0.894747321   0.000198029451 -0.000103175698    0.00019802945 -0.000103175698      0.390805217     0.897648232
12.660364            0.397528806     0.894540943   0.000198273855 -0.000103430204   0.000198273854 -0.000103430203      0.391231975     0.897446021
12.660392            0.397956588     0.894334195   0.000198518554  -0.00010368534   0.000198518553  -0.00010368534      0.391658952     0.897243444
12.66042             0.398384589     0.894127077   0.000198763548 -0.000103941109   0.000198763547 -0.000103941109      0.392086151     0.897040503
12.660448             0.39881281     0.893919588   0.000199008836 -0.000104197513   0.000199008835 -0.000104197513       0.39251357     0.896837196
12.660476             0.39924125     0.893711727   0.000199254419 -0.000104454553   0.000199254419 -0.000104454552      0.392941209     0.896633522
12.660504            0.399669911     0.893503493   0.000199500298  -0.00010471223   0.000199500297  -0.00010471223       0.39336907     0.896429481
12.660532             0.40009879     0.893294887   0.000199746472 -0.000104970547   0.000199746471 -0.000104970547      0.393797151     0.896225072
12.66056              0.40052789     0.893085907   0.000199992941 -0.000105229505    0.00019999294 -0.000105229504      0.394225453     0.896020295
12.660588             0.40095721     0.892876553   0.000200239706 -0.000105489105   0.000200239705 -0.000105489105      0.394653976     0.895815149
12.660616            0.401386749     0.892666824   0.000200486766  -0.00010574935   0.000200486766  -0.00010574935       0.39508272     0.895609634
12.660644            0.401816508      0.89245672   0.000200734123 -0.000106010241   0.000200734122 -0.000106010241      0.395511685     0.895403748
12.660672            0.402246487      0.89224624   0.000200981776  -0.00010627178   0.000200981775 -0.000106271779      0.395940871     0.895197491
12.6607              0.402676686     0.892035383   0.000201229724 -0.000106533968   0.000201229724 -0.000106533968      0.396370279     0.894990863
12.660728            0.403107105     0.891824149    0.00020147797 -0.000106796807   0.000201477969 -0.000106796807      0.396799907     0.894783863
12.660756            0.403537744     0.891612536   0.000201726512   -0.0001070603   0.000201726511 -0.000107060299      0.397229757      0.89457649
12.660784            0.403968603     0.891400545    0.00020197535 -0.000107324446   0.000201975349 -0.000107324446      0.397659827     0.894368744
12.660812            0.404399682     0.891188175   0.000202224485 -0.000107589249   0.000202224485 -0.000107589249       0.39809012     0.894160624
12.66084             0.404830982     0.890975425   0.000202473918 -0.000107854711   0.000202473917  -0.00010785471      0.398520633     0.893952129
12.660868            0.405262501     0.890762294   0.000202723647 -0.000108120831   0.000202723646 -0.000108120831      0.398951368     0.893743259
12.660896            0.405694241     0.890548782   0.000202973674 -0.000108387613   0.000202973673 -0.000108387613      0.399382324     0.893534013
12.660924            0.406126202     0.890334889   0.000203223998 -0.000108655059   0.000203223997 -0.000108655058      0.399813502      0.89332439
12.660952            0.406558382     0.890120612   0.000203474619 -0.000108923169   0.000203474619 -0.000108923169      0.400244901      0.89311439
12.66098             0.406990783     0.889905953   0.000203725539 -0.000109191946   0.000203725538 -0.000109191946      0.400676522     0.892904013
12.661008            0.407423404      0.88969091   0.000203976756 -0.000109461391   0.000203976755 -0.000109461391      0.401108365     0.892693257
12.661036            0.407856246     0.889475482   0.000204228271 -0.000109731507   0.000204228271 -0.000109731506      0.401540429     0.892482122
12.661064            0.408289308      0.88925967   0.000204480084 -0.000110002294   0.000204480084 -0.000110002294      0.401972715     0.892270607
12.661092            0.408722591     0.889043471   0.000204732196 -0.000110273755   0.000204732195 -0.000110273755      0.402405223     0.892058712
12.66112             0.409156095     0.888826886   0.000204984606 -0.000110545891   0.000204984605 -0.000110545891      0.402837952     0.891846435
12.661148            0.409589819     0.888609915   0.000205237314 -0.000110818705   0.000205237314 -0.000110818704      0.403270904     0.891633778
12.661176            0.410023763     0.888392555   0.000205490321 -0.000111092197   0.000205490321 -0.000111092197      0.403704077     0.891420737
12.661204            0.410457928     0.888174807   0.000205743627 -0.000111366371   0.000205743626  -0.00011136637      0.404137472     0.891207314
12.661232            0.410892314      0.88795667   0.000205997232 -0.000111641226   0.000205997231 -0.000111641226      0.404571089     0.890993507
12.66126             0.411326921     0.887738144   0.000206251135 -0.000111916767   0.000206251135 -0.000111916766      0.405004928     0.890779316
12.661288            0.411761749     0.887519227   0.000206505338 -0.000112192993   0.000206505338 -0.000112192992      0.405438989     0.890564741
12.661316            0.412196797     0.887299919    0.00020675984 -0.000112469907    0.00020675984 -0.000112469906      0.405873272     0.890349779
12.661344            0.412632066     0.887080219   0.000207014642  -0.00011274751   0.000207014641  -0.00011274751      0.406307778     0.890134431
12.661372            0.413067556     0.886860127   0.000207269743 -0.000113025806   0.000207269742 -0.000113025805      0.406742505     0.889918697
12.6614              0.413503267     0.886639642   0.000207525144 -0.000113304794   0.000207525143 -0.000113304794      0.407177455     0.889702575
12.661428            0.413939199     0.886418764   0.000207780844 -0.000113584478   0.000207780844 -0.000113584478      0.407612627     0.889486064
12.661456            0.414375351     0.886197491   0.000208036844 -0.000113864859   0.000208036844 -0.000113864858      0.408048021     0.889269165
12.661484            0.414811725     0.885975823   0.000208293145 -0.000114145938   0.000208293144 -0.000114145938      0.408483637     0.889051876
12.661512             0.41524832      0.88575376   0.000208549745 -0.000114427718   0.000208549745 -0.000114427718      0.408919476     0.888834197
12.66154             0.415685136       0.8855313   0.000208806646 -0.000114710201   0.000208806645   -0.0001147102      0.409355537     0.888616128
12.661568            0.416122173     0.885308443   0.000209063847 -0.000114993387   0.000209063846 -0.000114993387      0.409791821     0.888397667
12.661596            0.416559431     0.885085188   0.000209321348  -0.00011527728   0.000209321348  -0.00011527728      0.410228327     0.888178813
12.661624             0.41699691     0.884861535    0.00020957915 -0.000115561881   0.000209579149 -0.000115561881      0.410665055     0.887959567
12.661652             0.41743461     0.884637483   0.000209837253 -0.000115847192   0.000209837252 -0.000115847192      0.411102007     0.887739927
12.66168             0.417872532     0.884413032   0.000210095656 -0.000116133214   0.000210095655 -0.000116133214       0.41153918     0.887519893
12.661708            0.418310675      0.88418818    0.00021035436 -0.000116419951    0.00021035436  -0.00011641995      0.411976576     0.887299465
12.661736            0.418749039     0.883962927   0.000210613365 -0.000116707402   0.000210613365 -0.000116707402      0.412414195      0.88707864
12.661764            0.419187624     0.883737272   0.000210872672 -0.000116995571   0.000210872671  -0.00011699557      0.412852036      0.88685742
12.661792            0.419626431     0.883511214   0.000211132279 -0.000117284459   0.000211132278 -0.000117284458        0.4132901     0.886635803
12.66182             0.420065458     0.883284754   0.000211392188 -0.000117574068   0.000211392187 -0.000117574068      0.413728387     0.886413788
12.661848            0.420504708     0.883057889   0.000211652397   -0.0001178644   0.000211652397   -0.0001178644      0.414166897     0.886191375
12.661876            0.420944178     0.882830621   0.000211912909 -0.000118155457   0.000211912908 -0.000118155457      0.414605629     0.885968563
12.661904             0.42138387     0.882602947   0.000212173722 -0.000118447241   0.000212173721  -0.00011844724      0.415044584     0.885745351
12.661932            0.421823784     0.882374867   0.000212434836 -0.000118739753   0.000212434836 -0.000118739753      0.415483762     0.885521739
12.66196             0.422263918      0.88214638   0.000212696253 -0.000119032996   0.000212696252 -0.000119032996      0.415923163     0.885297727
12.661988            0.422704275     0.881917487   0.000212957971 -0.000119326972    0.00021295797 -0.000119326972      0.416362786     0.885073312
12.662016            0.423144852     0.881688185   0.000213219991 -0.000119621682    0.00021321999 -0.000119621682      0.416802633     0.884848496
12.662044            0.423585652     0.881458475   0.000213482313 -0.000119917129   0.000213482312 -0.000119917128      0.417242702     0.884623276
12.662072            0.424026672     0.881228355   0.000213744937 -0.000120213313   0.000213744936 -0.000120213313      0.417682994     0.884397653
12.6621              0.424467915     0.880997825   0.000214007863 -0.000120510238   0.000214007862 -0.000120510238       0.41812351     0.884171625
12.662128            0.424909379     0.880766885   0.000214271091 -0.000120807906   0.000214271091 -0.000120807905      0.418564248     0.883945192
12.662156            0.425351064     0.880535533   0.000214534622 -0.000121106317   0.000214534621 -0.000121106317      0.419005209     0.883718354
12.662184            0.425792971     0.880303769   0.000214798455 -0.000121405474   0.000214798454 -0.000121405474      0.419446394     0.883491109
12.662212            0.426235099     0.880071592    0.00021506259  -0.00012170538    0.00021506259  -0.00012170538      0.419887801     0.883263457
12.66224              0.42667745     0.879839002   0.000215327028 -0.000122006036   0.000215327028 -0.000122006035      0.420329432     0.883035397
12.662268            0.427120021     0.879605997   0.000215591769 -0.000122307443   0.000215591768 -0.000122307443      0.420771285     0.882806929
12.662296            0.427562815     0.879372578   0.000215856812 -0.000122609605   0.000215856811 -0.000122609604      0.421213362     0.882578051
12.662324             0.42800583     0.879138742   0.000216122158 -0.000122912522   0.000216122157 -0.000122912522      0.421655662     0.882348763
12.662352            0.428449067     0.878904491   0.000216387806 -0.000123216198   0.000216387806 -0.000123216197      0.422098185     0.882119065
12.66238             0.428892525     0.878669822   0.000216653758 -0.000123520633   0.000216653757 -0.000123520633      0.422540932     0.881888956
12.662408            0.429336205     0.878434735   0.000216920012 -0.000123825831   0.000216920011  -0.00012382583      0.422983901     0.881658434
12.662436            0.429780107      0.87819923   0.000217186569 -0.000124131792   0.000217186569 -0.000124131791      0.423427094       0.8814275
12.662464            0.430224231     0.877963306    0.00021745343 -0.000124438519   0.000217453429 -0.000124438519       0.42387051     0.881196152
12.662492            0.430668576     0.877726962   0.000217720593 -0.000124746014   0.000217720592 -0.000124746014      0.424314149     0.880964391
12.66252             0.431113143     0.877490197   0.000217988059  -0.00012505428   0.000217988059 -0.000125054279      0.424758012     0.880732214
12.662548            0.431557932     0.877253011   0.000218255829 -0.000125363317   0.000218255828 -0.000125363316      0.425202098     0.880499622
12.662576            0.432002942     0.877015402   0.000218523902 -0.000125673128   0.000218523901 -0.000125673128      0.425646407     0.880266613
12.662604            0.432448174     0.876777371   0.000218792278 -0.000125983716   0.000218792277 -0.000125983715      0.426090939     0.880033188
12.662632            0.432893628     0.876538917   0.000219060957 -0.000126295081   0.000219060957 -0.000126295081      0.426535695     0.879799345
12.66266             0.433339304     0.876300038    0.00021932994 -0.000126607227    0.00021932994 -0.000126607226      0.426980674     0.879565083
12.662688            0.433785202     0.876060734   0.000219599226 -0.000126920155   0.000219599226 -0.000126920154      0.427425877     0.879330403
12.662716            0.434231321     0.875821004   0.000219868816 -0.000127233867   0.000219868815 -0.000127233866      0.427871303     0.879095302
12.662744            0.434677662     0.875580848   0.000220138709 -0.000127548365   0.000220138709 -0.000127548365      0.428316952     0.878859781
12.662772            0.435124225     0.875340264   0.000220408906 -0.000127863652   0.000220408905 -0.000127863652      0.428762825     0.878623839
12.6628               0.43557101     0.875099253   0.000220679406  -0.00012817973   0.000220679405 -0.000128179729      0.429208921     0.878387474
12.662828            0.436018017     0.874857813    0.00022095021   -0.0001284966   0.000220950209 -0.000128496599      0.429655241     0.878150687
12.662856            0.436465245     0.874615944   0.000221221317 -0.000128814265   0.000221221316 -0.000128814264      0.430101784     0.877913477
12.662884            0.436912695     0.874373645   0.000221492728 -0.000129132726   0.000221492727 -0.000129132726       0.43054855     0.877675842
12.662912            0.437360367     0.874130915   0.000221764442 -0.000129451986   0.000221764442 -0.000129451986       0.43099554     0.877437783
12.66294             0.437808261     0.873887753   0.000222036461 -0.000129772048    0.00022203646 -0.000129772047      0.431442754     0.877199298
12.662968            0.438256377     0.873644159   0.000222308783 -0.000130092912   0.000222308782 -0.000130092912       0.43189019     0.876960386
12.662996            0.438704714     0.873400132   0.000222581408 -0.000130414582   0.000222581408 -0.000130414581      0.432337851     0.876721048
12.663024            0.439153273     0.873155671   0.000222854338 -0.000130737058   0.000222854337 -0.000130737058      0.432785735     0.876481281
12.663052            0.439602054     0.872910775   0.000223127571 -0.000131060345    0.00022312757 -0.000131060344      0.433233842     0.876241086
12.66308             0.440051057     0.872665445   0.000223401108 -0.000131384442   0.000223401107 -0.000131384442      0.433682173     0.876000462
12.663108            0.440500282     0.872419678   0.000223674948 -0.000131709354   0.000223674948 -0.000131709354      0.434130727     0.875759408
12.663136            0.440949728     0.872173474   0.000223949093 -0.000132035081   0.000223949092 -0.000132035081      0.434579505     0.875517923
12.663164            0.441399396     0.871926833   0.000224223541 -0.000132361627    0.00022422354 -0.000132361626      0.435028506     0.875276006
12.663192            0.441849286     0.871679754   0.000224498293 -0.000132688992   0.000224498292 -0.000132688992      0.435477731     0.875033657
12.66322             0.442299398     0.871432236   0.000224773349  -0.00013301718   0.000224773348  -0.00013301718      0.435927179     0.874790876
12.663248            0.442749732     0.871184277   0.000225048708 -0.000133346193   0.000225048708 -0.000133346192      0.436376851      0.87454766
12.663276            0.443200287     0.870935879   0.000225324371 -0.000133676032   0.000225324371 -0.000133676031      0.436826746      0.87430401
12.663304            0.443651064     0.870687039   0.000225600339 -0.000134006699   0.000225600338 -0.000134006699      0.437276865     0.874059925
12.663332            0.444102063     0.870437757   0.000225876609 -0.000134338198   0.000225876609 -0.000134338198      0.437727207     0.873815404
12.66336             0.444553283     0.870188032   0.000226153184  -0.00013467053   0.000226153184  -0.00013467053      0.438177773     0.873570446
12.663388            0.445004726     0.869937864   0.000226430062 -0.000135003698   0.000226430062 -0.000135003697      0.438628562     0.873325051
12.663416             0.44545639     0.869687251   0.000226707245 -0.000135337703   0.000226707244 -0.000135337703      0.439079575     0.873079218
12.663444            0.445908275     0.869436193    0.00022698473 -0.000135672548    0.00022698473 -0.000135672548      0.439530811     0.872832945
12.663472            0.446360383     0.869184689    0.00022726252 -0.000136008235   0.000227262519 -0.000136008235      0.439982271     0.872586233
12.6635              0.446812712     0.868932739   0.000227540613 -0.000136344766   0.000227540612 -0.000136344766      0.440433954     0.872339081
12.663528            0.447265262     0.868680341    0.00022781901 -0.000136682144   0.000227819009 -0.000136682144      0.440885861     0.872091487
12.663556            0.447718035     0.868427496    0.00022809771  -0.00013702037    0.00022809771  -0.00013702037      0.441337991     0.871843451
12.663584            0.448171029     0.868174201   0.000228376714 -0.000137359448   0.000228376714 -0.000137359447      0.441790345     0.871594972
12.663612            0.448624244     0.867920456   0.000228656022 -0.000137699379   0.000228656021 -0.000137699378      0.442242922      0.87134605
12.66364             0.449077682     0.867666262   0.000228935633 -0.000138040165   0.000228935632 -0.000138040164      0.442695722     0.871096684
12.663668             0.44953134     0.867411615   0.000229215547 -0.000138381809   0.000229215547 -0.000138381808      0.443148746     0.870846873
12.663696            0.449985221     0.867156517   0.000229495765 -0.000138724312   0.000229495765 -0.000138724312      0.443601993     0.870596616
12.663724            0.450439323     0.866900966   0.000229776287 -0.000139067678   0.000229776286 -0.000139067678      0.444055464     0.870345912
12.663752            0.450893646     0.866644962   0.000230057112 -0.000139411909   0.000230057111 -0.000139411909      0.444509158     0.870094761
12.66378             0.451348191     0.866388503    0.00023033824 -0.000139757006   0.000230338239 -0.000139757006      0.444963076     0.869843162
12.663808            0.451802957     0.866131589   0.000230619671 -0.000140102973    0.00023061967 -0.000140102972      0.445417217     0.869591114
12.663836            0.452257945     0.865874219   0.000230901405 -0.000140449811   0.000230901405  -0.00014044981      0.445871581     0.869338616
12.663864            0.452713155     0.865616393   0.000231183443 -0.000140797522   0.000231183443 -0.000140797522      0.446326169     0.869085668
12.663892            0.453168585     0.865358109   0.000231465784  -0.00014114611   0.000231465783  -0.00014114611      0.446780979     0.868832269
12.66392             0.453624237     0.865099366   0.000231748428 -0.000141495576   0.000231748427 -0.000141495575      0.447236014     0.868578417
12.663948            0.454080111     0.864840165   0.000232031375 -0.000141845923   0.000232031374 -0.000141845922      0.447691271     0.868324113
12.663976            0.454536206     0.864580504   0.000232314624 -0.000142197152   0.000232314624 -0.000142197152      0.448146752     0.868069356
12.664004            0.454992522     0.864320382   0.000232598177 -0.000142549267   0.000232598176 -0.000142549266      0.448602456     0.867814144
12.664032            0.455449059     0.864059798   0.000232882032 -0.000142902269   0.000232882032 -0.000142902269      0.449058384     0.867558477
12.66406             0.455905818     0.863798753   0.000233166191 -0.000143256162    0.00023316619 -0.000143256161      0.449514534     0.867302354
12.664088            0.456362798     0.863537244   0.000233450651 -0.000143610946   0.000233450651 -0.000143610946      0.449970908     0.867045775
12.664116            0.456819999     0.863275272   0.000233735414 -0.000143966626   0.000233735414 -0.000143966625      0.450427505     0.866788738
12.664144            0.457277421     0.863012835    0.00023402048 -0.000144323202    0.00023402048 -0.000144323202      0.450884325     0.866531243
12.664172            0.457735065     0.862749932   0.000234305848 -0.000144680678   0.000234305848 -0.000144680678      0.451341368     0.866273289
12.6642              0.458192929     0.862486564   0.000234591519 -0.000145039056   0.000234591518 -0.000145039056      0.451798634     0.866014875
12.664228            0.458651015     0.862222728   0.000234877491 -0.000145398338   0.000234877491 -0.000145398338      0.452256124        0.865756
12.664256            0.459109322     0.861958425   0.000235163766 -0.000145758526   0.000235163765 -0.000145758526      0.452713836     0.865496664
12.664284            0.459567849     0.861693653   0.000235450343 -0.000146119624   0.000235450342 -0.000146119623      0.453171772     0.865236866
12.664312            0.460026598     0.861428411   0.000235737221 -0.000146481633   0.000235737221 -0.000146481632       0.45362993     0.864976604
12.66434             0.460485568     0.861162699   0.000236024402 -0.000146844555   0.000236024401 -0.000146844555      0.454088312     0.864715879
12.664368            0.460944758     0.860896516   0.000236311884 -0.000147208394   0.000236311884 -0.000147208394      0.454546916      0.86445469
12.664396            0.461404169     0.860629862   0.000236599668 -0.000147573152   0.000236599667 -0.000147573151      0.455005744     0.864193035
12.664424            0.461863802     0.860362734   0.000236887753  -0.00014793883   0.000236887753  -0.00014793883      0.455464794     0.863930913
12.664452            0.462323654     0.860095133    0.00023717614 -0.000148305432   0.000237176139 -0.000148305431      0.455924067     0.863668325
12.66448             0.462783728     0.859827058   0.000237464828  -0.00014867296   0.000237464827 -0.000148672959      0.456383563     0.863405269
12.664508            0.463244023     0.859558508   0.000237753817 -0.000149041416   0.000237753817 -0.000149041416      0.456843282     0.863141744
12.664536            0.463704538     0.859289481   0.000238043107 -0.000149410803   0.000238043107 -0.000149410803      0.457303224      0.86287775
12.664564            0.464165273     0.859019978   0.000238332699 -0.000149781124   0.000238332698 -0.000149781123      0.457763388     0.862613286
12.664592             0.46462623     0.858749997    0.00023862259  -0.00015015238    0.00023862259 -0.000150152379      0.458223775      0.86234835
12.66462             0.465087407     0.858479538   0.000238912783 -0.000150524574   0.000238912782 -0.000150524574      0.458684385     0.862082943
12.664648            0.465548804       0.8582086   0.000239203276 -0.000150897709   0.000239203275 -0.000150897709      0.459145217     0.861817063
12.664676            0.466010422     0.857937181   0.000239494069 -0.000151271787   0.000239494069 -0.000151271787      0.459606272     0.861550709
12.664704             0.46647226     0.857665282   0.000239785163 -0.000151646811   0.000239785163 -0.000151646811      0.460067549     0.861283881
12.664732            0.466934318     0.857392901   0.000240076557 -0.000152022784   0.000240076556 -0.000152022783      0.460529049     0.861016578
12.66476             0.467396597     0.857120037   0.000240368251 -0.000152399707    0.00024036825 -0.000152399706      0.460990772     0.860748799
12.664788            0.467859096      0.85684669   0.000240660244 -0.000152777583   0.000240660244 -0.000152777582      0.461452717     0.860480544
12.664816            0.468321815     0.856572859   0.000240952537 -0.000153156415   0.000240952537 -0.000153156414      0.461914884      0.86021181
12.664844            0.468784755     0.856298542    0.00024124513 -0.000153536205    0.00024124513 -0.000153536204      0.462377273     0.859942598
12.664872            0.469247914      0.85602374   0.000241538022 -0.000153916956   0.000241538022 -0.000153916955      0.462839885     0.859672907
12.6649              0.469711294     0.855748451   0.000241831213  -0.00015429867   0.000241831213  -0.00015429867       0.46330272     0.859402736
12.664928            0.470174893     0.855472674   0.000242124704  -0.00015468135   0.000242124703  -0.00015468135      0.463765776     0.859132084
12.664956            0.470638713     0.855196409   0.000242418493 -0.000155064999   0.000242418492 -0.000155064998      0.464229055      0.85886095
12.664984            0.471102752     0.854919654    0.00024271258 -0.000155449619    0.00024271258 -0.000155449618      0.464692555     0.858589334
12.665012            0.471567011      0.85464241   0.000243006967 -0.000155835212   0.000243006966 -0.000155835212      0.465156278     0.858317234
12.66504              0.47203149     0.854364674   0.000243301651 -0.000156221782   0.000243301651 -0.000156221781      0.465620223      0.85804465
12.665068            0.472496189     0.854086447   0.000243596634  -0.00015660933   0.000243596633 -0.000156609329       0.46608439      0.85777158
12.665096            0.472961107     0.853807727   0.000243891915 -0.000156997859   0.000243891914 -0.000156997859      0.466548779     0.857498025
12.665124            0.473426245     0.853528513   0.000244187493 -0.000157387373   0.000244187493 -0.000157387373       0.46701339     0.857223983
12.665152            0.473891603     0.853248806   0.000244483369 -0.000157777873   0.000244483369 -0.000157777873      0.467478222     0.856949453
12.66518              0.47435718     0.852968602   0.000244779543 -0.000158169362   0.000244779542 -0.000158169362      0.467943276     0.856674435
12.665208            0.474822976     0.852687903   0.000245076013 -0.000158561844   0.000245076013 -0.000158561843      0.468408553     0.856398928
12.665236            0.475288992     0.852406707   0.000245372781 -0.000158955319    0.00024537278 -0.000158955319       0.46887405      0.85612293
12.665264            0.475755227     0.852125013   0.000245669845 -0.000159349792   0.000245669844 -0.000159349791       0.46933977     0.855846442
12.665292            0.476221681      0.85184282   0.000245967206 -0.000159745264   0.000245967205 -0.000159745263      0.469805711     0.855569461
12.66532             0.476688354     0.851560128   0.000246264863 -0.000160141738   0.000246264863 -0.000160141738      0.470271873     0.855291988
12.665348            0.477155246     0.851276935   0.000246562816 -0.000160539218   0.000246562816 -0.000160539217      0.470738257     0.855014021
12.665376            0.477622358     0.850993241   0.000246861066 -0.000160937705   0.000246861065 -0.000160937705      0.471204862      0.85473556
12.665404            0.478089688     0.850709045   0.000247159611 -0.000161337203    0.00024715961 -0.000161337202      0.471671689     0.854456603