! TOUCHSTONE file generated by CST MICROWAVE STUDIO
! Date and time: Wed Jul 31 13:24:43 2024
! Project name: WaveGuide_BPF-Ver4.1_U-shape_Ku_T3_C4_CWA_2.cst
! Parameters = {cavity_h=16; cavity_l0=10; cavity_l1=15.1694; cavity_l2=16.8579; cavity_l3=17.1309; cavity_l4=17.2467; cavity_l5=17.1228; cavity_l6=17.6198; cavity_r=2.5; cavity_screw_l=0.5; cavity_screw_r=1.5; cavity_w=8; iris_h00=0; iris_h01=8.842; iris_h112=0; iris_h12=5.6136; iris_h211=3.6512; iris_h23=5.2011; iris_h310=3.9757; iris_h34=5.0771; iris_h45=4.9379; iris_h49=4.6138; iris_h56=4.8078; iris_h58=4.4453; iris_h67=6.5853; iris_rx=0.1; iris_screw_l=0.5; iris_screw_r=1.5; iris_shift00=0; iris_shift112=0; iris_shift211=3.5; iris_shift310=0; iris_shift49=0; iris_shift58=3.5; iris_shift67=3.5; iris_tx=4.5; iris_tz=4.5; iris_w00=0; iris_w112=0; iris_w211=4; iris_w310=3.9757; iris_w49=4.6138; iris_w58=4; iris_w67=4; mesh_cavity=5; mesh_iris=7; mesh_screw=7; order=12; reset_all=0; sigma=4.8e+07}
! Header version: 2018
! Port assignment regex: !\s*Touchstone port\s*([0-9]+)\s*=\s*(CST MWS port|CST DS port)\s*([0-9]+|Zmin|Zmax)\s*\(\"(.*)\"\)(\s*mode\s*([0-9]+))?.*
! Touchstone port assignment:
! Touchstone port 1 = CST MWS port 1 ("")
! Touchstone port 2 = CST MWS port 2 ("")
# GHz S RI R 50
12.66                0.322506886     0.926691481   0.000268338329 -0.000115786201   0.000268338329 -0.000115786201      0.322890124     0.926452177
12.660028            0.322898661     0.926540539   0.000268728588 -0.000116100545   0.000268728588 -0.000116100545      0.323285365       0.9262997
12.660056            0.323290655      0.92638931   0.000269119494 -0.000116415753   0.000269119494 -0.000116415753      0.323680779     0.926146949
12.660084            0.323682876      0.92623779   0.000269511044 -0.000116731832   0.000269511043 -0.000116731831      0.324076395     0.925993911
12.660112            0.324075331     0.926085976   0.000269903234 -0.000117048787   0.000269903234 -0.000117048787      0.324472241     0.925840578
12.66014             0.324468029     0.925933866   0.000270296062 -0.000117366627   0.000270296062 -0.000117366627      0.324868345     0.925686938
12.660168            0.324860969     0.925781458   0.000270689529 -0.000117685354   0.000270689529 -0.000117685354      0.325264708     0.925532992
12.660196            0.325254147     0.925628753   0.000271083639 -0.000118004968   0.000271083638 -0.000118004967      0.325661311     0.925378744
12.660224            0.325647563     0.925475751   0.000271478392 -0.000118325471   0.000271478391 -0.000118325471      0.326058155     0.925224195
12.660252            0.326041218     0.925322452   0.000271873789 -0.000118646866   0.000271873788 -0.000118646866      0.326455238     0.925069344
12.66028              0.32643511     0.925168855   0.000272269832 -0.000118969156   0.000272269831 -0.000118969156      0.326852563      0.92491419
12.660308            0.326829241      0.92501496   0.000272666521 -0.000119292344   0.000272666521 -0.000119292344      0.327250128     0.924758733
12.660336            0.327223611     0.924860765   0.000273063859 -0.000119616432   0.000273063858 -0.000119616432      0.327647934     0.924602973
12.660364             0.32761822      0.92470627   0.000273461844 -0.000119941423   0.000273461844 -0.000119941423      0.328045982     0.924446908
12.660392            0.328013068     0.924551475    0.00027386048  -0.00012026732   0.000273860479 -0.000120267319      0.328444271     0.924290537
12.66042             0.328408155     0.924396379   0.000274259766 -0.000120594125   0.000274259765 -0.000120594125      0.328842801     0.924133862
12.660448            0.328803481     0.924240982   0.000274659704 -0.000120921841   0.000274659703 -0.000120921841      0.329241573      0.92397688
12.660476            0.329199047     0.924085283   0.000275060295 -0.000121250472   0.000275060294 -0.000121250472      0.329640587     0.923819592
12.660504            0.329594854     0.923929281   0.000275461539 -0.000121580019   0.000275461538 -0.000121580019      0.330039844     0.923661996
12.660532              0.3299909     0.923772976   0.000275863438 -0.000121910486   0.000275863438 -0.000121910486      0.330439342     0.923504092
12.66056             0.330387186     0.923616367   0.000276265993 -0.000122241875   0.000276265993 -0.000122241875      0.330839084      0.92334588
12.660588            0.330783713     0.923459454   0.000276669206 -0.000122574189   0.000276669205 -0.000122574189      0.331239067     0.923187359
12.660616            0.331180481     0.923302236   0.000277073076 -0.000122907432   0.000277073075 -0.000122907431      0.331639294     0.923028528
12.660644            0.331577489     0.923144712   0.000277477605 -0.000123241605   0.000277477604 -0.000123241604      0.332039764     0.922869387
12.660672            0.331974739     0.922986882   0.000277882794 -0.000123576711   0.000277882793 -0.000123576711      0.332440478     0.922709935
12.6607              0.332372229     0.922828746   0.000278288644 -0.000123912754   0.000278288643 -0.000123912754      0.332841434     0.922550172
12.660728            0.332769961     0.922670302   0.000278695156 -0.000124249737   0.000278695155 -0.000124249736      0.333242635     0.922390097
12.660756            0.333167935     0.922511551   0.000279102331 -0.000124587661   0.000279102331 -0.000124587661      0.333644079     0.922229709
12.660784            0.333566151     0.922352491   0.000279510171 -0.000124926531    0.00027951017 -0.000124926531      0.334045768     0.922069008
12.660812            0.333964608     0.922193122   0.000279918676 -0.000125266348   0.000279918675 -0.000125266348      0.334447701     0.921907993
12.66084             0.334363308     0.922033444   0.000280327847 -0.000125607117   0.000280327846 -0.000125607116      0.334849878     0.921746664
12.660868             0.33476225     0.921873455   0.000280737685 -0.000125948839   0.000280737684 -0.000125948838        0.3352523      0.92158502
12.660896            0.335161435     0.921713156   0.000281148192 -0.000126291517   0.000281148191 -0.000126291517      0.335654966      0.92142306
12.660924            0.335560862     0.921552545   0.000281559368 -0.000126635155   0.000281559367 -0.000126635155      0.336057878     0.921260784
12.660952            0.335960532     0.921391622   0.000281971215 -0.000126979755   0.000281971214 -0.000126979755      0.336461035     0.921098192
12.66098             0.336360446     0.921230387   0.000282383733 -0.000127325321   0.000282383732 -0.000127325321      0.336864438     0.920935282
12.661008            0.336760603     0.921068838   0.000282796923 -0.000127671855   0.000282796923 -0.000127671855      0.337268086     0.920772053
12.661036            0.337161004     0.920906976   0.000283210788 -0.000128019361   0.000283210787  -0.00012801936       0.33767198     0.920608507
12.661064            0.337561648       0.9207448   0.000283625326  -0.00012836784   0.000283625326  -0.00012836784       0.33807612      0.92044464
12.661092            0.337962536     0.920582308   0.000284040541 -0.000128717297    0.00028404054 -0.000128717297      0.338480506     0.920280455
12.66112             0.338363668     0.920419501   0.000284456432 -0.000129067734   0.000284456432 -0.000129067734      0.338885138     0.920115948
12.661148            0.338765045     0.920256378   0.000284873002 -0.000129419154   0.000284873001 -0.000129419154      0.339290017     0.919951121
12.661176            0.339166666     0.920092937    0.00028529025  -0.00012977156   0.000285290249  -0.00012977156      0.339695143     0.919785972
12.661204            0.339568532      0.91992918   0.000285708178 -0.000130124955   0.000285708177 -0.000130124955      0.340100516       0.9196205
12.661232            0.339970643     0.919765104   0.000286126786 -0.000130479343   0.000286126786 -0.000130479343      0.340506136     0.919454706
12.66126             0.340372999      0.91960071   0.000286546077 -0.000130834726   0.000286546077 -0.000130834726      0.340912003     0.919288588
12.661288              0.3407756     0.919435997   0.000286966051 -0.000131191107    0.00028696605 -0.000131191107      0.341318118     0.919122146
12.661316            0.341178447     0.919270964   0.000287386709 -0.000131548489   0.000287386709 -0.000131548489      0.341724481     0.918955379
12.661344             0.34158154      0.91910561   0.000287808053 -0.000131906876   0.000287808052 -0.000131906876      0.342131091     0.918788286
12.661372            0.341984878     0.918939935   0.000288230082 -0.000132266271   0.000288230081  -0.00013226627       0.34253795     0.918620868
12.6614              0.342388463     0.918773939   0.000288652799 -0.000132626675   0.000288652798 -0.000132626675      0.342945057     0.918453123
12.661428            0.342792294      0.91860762   0.000289076204 -0.000132988094   0.000289076203 -0.000132988094      0.343352413      0.91828505
12.661456            0.343196371     0.918440978   0.000289500299 -0.000133350529   0.000289500298 -0.000133350529      0.343760017      0.91811665
12.661484            0.343600695     0.918274013   0.000289925084 -0.000133713984   0.000289925083 -0.000133713984       0.34416787     0.917947921
12.661512            0.344005266     0.918106724    0.00029035056 -0.000134078462   0.000290350559 -0.000134078462      0.344575973     0.917778862
12.66154             0.344410083      0.91793911   0.000290776729 -0.000134443967   0.000290776728 -0.000134443966      0.344984324     0.917609474
12.661568            0.344815149      0.91777117   0.000291203592   -0.0001348105   0.000291203591   -0.0001348105      0.345392925     0.917439756
12.661596            0.345220461     0.917602904   0.000291631149 -0.000135178066   0.000291631149 -0.000135178066      0.345801776     0.917269706
12.661624            0.345626022     0.917434312   0.000292059403 -0.000135546667   0.000292059402 -0.000135546667      0.346210877     0.917099325
12.661652             0.34603183     0.917265392   0.000292488353 -0.000135916308   0.000292488352 -0.000135916307      0.346620228     0.916928611
12.66168             0.346437886     0.917096144   0.000292918001  -0.00013628699      0.000292918  -0.00013628699      0.347029829     0.916757564
12.661708             0.34684419     0.916926568   0.000293348348 -0.000136658717   0.000293348347 -0.000136658717       0.34743968     0.916586183
12.661736            0.347250743     0.916756662   0.000293779395 -0.000137031493   0.000293779394 -0.000137031493      0.347849782     0.916414468
12.661764            0.347657545     0.916586427   0.000294211143 -0.000137405321   0.000294211142  -0.00013740532      0.348260135     0.916242418
12.661792            0.348064595     0.916415861   0.000294643593 -0.000137780203   0.000294643592 -0.000137780202      0.348670739     0.916070032
12.66182             0.348471894     0.916244964   0.000295076746 -0.000138156143   0.000295076746 -0.000138156143      0.349081594      0.91589731
12.661848            0.348879443     0.916073735   0.000295510604 -0.000138533145   0.000295510603 -0.000138533144      0.349492701     0.915724251
12.661876            0.349287241     0.915902173   0.000295945167 -0.000138911211   0.000295945166  -0.00013891121      0.349904059     0.915550855
12.661904            0.349695288     0.915730279   0.000296380436 -0.000139290345   0.000296380436 -0.000139290345       0.35031567      0.91537712
12.661932            0.350103586     0.915558051   0.000296816413  -0.00013967055   0.000296816413  -0.00013967055      0.350727532     0.915203046
12.66196             0.350512133     0.915385488   0.000297253099  -0.00014005183   0.000297253098 -0.000140051829      0.351139646     0.915028633
12.661988            0.350920931      0.91521259   0.000297690494 -0.000140434187   0.000297690493 -0.000140434187      0.351552013     0.914853879
12.662016            0.351329979     0.915039357     0.0002981286 -0.000140817625   0.000298128599 -0.000140817625      0.351964632     0.914678785
12.662044            0.351739277     0.914865787   0.000298567417 -0.000141202148   0.000298567416 -0.000141202148      0.352377504     0.914503348
12.662072            0.352148827     0.914691881   0.000299006947 -0.000141587759   0.000299006947 -0.000141587758      0.352790629      0.91432757
12.6621              0.352558627     0.914517636   0.000299447192  -0.00014197446   0.000299447191  -0.00014197446      0.353204007     0.914151449
12.662128            0.352968679     0.914343054   0.000299888151 -0.000142362256    0.00029988815 -0.000142362256      0.353617639     0.913974984
12.662156            0.353378982     0.914168132   0.000300329826  -0.00014275115   0.000300329825  -0.00014275115      0.354031524     0.913798175
12.662184            0.353789536     0.913992871   0.000300772218 -0.000143141146   0.000300772217 -0.000143141145      0.354445663     0.913621021
12.662212            0.354200343     0.913817269   0.000301215329 -0.000143532245   0.000301215328 -0.000143532245      0.354860056     0.913443521
12.66224             0.354611401     0.913641326   0.000301659158 -0.000143924453   0.000301659158 -0.000143924453      0.355274703     0.913265675
12.662268            0.355022711     0.913465042   0.000302103708 -0.000144317772   0.000302103708 -0.000144317772      0.355689604     0.913087483
12.662296            0.355434274     0.913288416    0.00030254898 -0.000144712207   0.000302548979 -0.000144712206       0.35610476     0.912908942
12.662324             0.35584609     0.913111446   0.000302994974 -0.000145107759   0.000302994973 -0.000145107759      0.356520171     0.912730053
12.662352            0.356258158     0.912934133   0.000303441691 -0.000145504433    0.00030344169 -0.000145504433      0.356935836     0.912550815
12.66238             0.356670479     0.912756476   0.000303889133 -0.000145902233   0.000303889132 -0.000145902233      0.357351757     0.912371228
12.662408            0.357083053     0.912578473     0.0003043373 -0.000146301161     0.0003043373 -0.000146301161      0.357767933      0.91219129
12.662436            0.357495881     0.912400125   0.000304786195 -0.000146701222   0.000304786194 -0.000146701221      0.358184364     0.912011001
12.662464            0.357908962     0.912221431   0.000305235817 -0.000147102418   0.000305235816 -0.000147102417      0.358601051     0.911830361
12.662492            0.358322296     0.912042389   0.000305686168 -0.000147504753   0.000305686167 -0.000147504753      0.359017994     0.911649368
12.66252             0.358735885        0.911863   0.000306137249 -0.000147908231   0.000306137248 -0.000147908231      0.359435193     0.911468021
12.662548            0.359149728     0.911683263   0.000306589061 -0.000148312856    0.00030658906 -0.000148312855      0.359852649     0.911286321
12.662576            0.359563825     0.911503176   0.000307041605  -0.00014871863   0.000307041604  -0.00014871863      0.360270361     0.911104267
12.662604            0.359978177      0.91132274   0.000307494882 -0.000149125558   0.000307494882 -0.000149125557      0.360688329     0.910921857
12.662632            0.360392784     0.911141953   0.000307948894 -0.000149533642   0.000307948893 -0.000149533642      0.361106554     0.910739092
12.66266             0.360807645     0.910960815   0.000308403641 -0.000149942888    0.00030840364 -0.000149942887      0.361525037     0.910555969
12.662688            0.361222762     0.910779325   0.000308859124 -0.000150353297   0.000308859123 -0.000150353297      0.361943776      0.91037249
12.662716            0.361638133     0.910597482   0.000309315345 -0.000150764874   0.000309315344 -0.000150764874      0.362362774     0.910188652
12.662744            0.362053761     0.910415287   0.000309772304 -0.000151177623   0.000309772303 -0.000151177623      0.362782028     0.910004456
12.662772            0.362469644     0.910232737   0.000310230003 -0.000151591547   0.000310230002 -0.000151591546      0.363201541       0.9098199
12.6628              0.362885783     0.910049833   0.000310688443 -0.000152006649   0.000310688442 -0.000152006649      0.363621311     0.909634984
12.662828            0.363302178     0.909866574   0.000311147624 -0.000152422934   0.000311147623 -0.000152422933       0.36404134     0.909449707
12.662856            0.363718829     0.909682958   0.000311607548 -0.000152840404   0.000311607548 -0.000152840404      0.364461627     0.909264069
12.662884            0.364135737     0.909498986   0.000312068217 -0.000153259065   0.000312068216 -0.000153259065      0.364882173     0.909078068
12.662912            0.364552901     0.909314656    0.00031252963 -0.000153678919   0.000312529629 -0.000153678918      0.365302978     0.908891705
12.66294             0.364970323     0.909129969   0.000312991789  -0.00015409997   0.000312991788 -0.000154099969      0.365724041     0.908704978
12.662968            0.365388001     0.908944922   0.000313454695 -0.000154522221   0.000313454695 -0.000154522221      0.366145364     0.908517886
12.662996            0.365805937     0.908759516    0.00031391835 -0.000154945678   0.000313918349 -0.000154945677      0.366566946     0.908330429
12.663024             0.36622413      0.90857375   0.000314382754 -0.000155370342   0.000314382753 -0.000155370342      0.366988788     0.908142606
12.663052            0.366642581     0.908387622   0.000314847908 -0.000155796219   0.000314847907 -0.000155796219      0.367410889     0.907954417
12.66308              0.36706129     0.908201133   0.000315313814 -0.000156223311   0.000315313813 -0.000156223311      0.367833251      0.90776586
12.663108            0.367480257     0.908014281   0.000315780472 -0.000156651623   0.000315780471 -0.000156651623      0.368255872     0.907576935
12.663136            0.367899482     0.907827067   0.000316247884 -0.000157081159   0.000316247883 -0.000157081159      0.368678754     0.907387642
12.663164            0.368318965     0.907639488    0.00031671605 -0.000157511922    0.00031671605 -0.000157511922      0.369101897     0.907197978
12.663192            0.368738707     0.907451545   0.000317184973 -0.000157943916   0.000317184972 -0.000157943915        0.3695253     0.907007945
12.66322             0.369158709     0.907263237   0.000317654652 -0.000158377144   0.000317654651 -0.000158377144      0.369948964     0.906817541
12.663248            0.369578969     0.907074562   0.000318125088 -0.000158811612   0.000318125088 -0.000158811612      0.370372889     0.906626765
12.663276            0.369999488     0.906885521   0.000318596284 -0.000159247322   0.000318596284 -0.000159247322      0.370797076     0.906435616
12.663304            0.370420267     0.906696113    0.00031906824 -0.000159684279   0.000319068239 -0.000159684278      0.371221524     0.906244094
12.663332            0.370841305     0.906506336   0.000319540957 -0.000160122486   0.000319540956 -0.000160122485      0.371646234     0.906052198
12.66336             0.371262603      0.90631619   0.000320014436 -0.000160561947   0.000320014436 -0.000160561947      0.372071206     0.905859928
12.663388            0.371684162     0.906125674   0.000320488679 -0.000161002666   0.000320488678 -0.000161002666      0.372496439     0.905667282
12.663416             0.37210598     0.905934788   0.000320963686 -0.000161444648   0.000320963685 -0.000161444647      0.372921935      0.90547426
12.663444            0.372528059     0.905743531   0.000321439458 -0.000161887895   0.000321439457 -0.000161887895      0.373347694     0.905280861
12.663472            0.372950399     0.905551902   0.000321915996 -0.000162332413   0.000321915996 -0.000162332413      0.373773715     0.905087084
12.6635              0.373372999       0.9053599   0.000322393302 -0.000162778205   0.000322393302 -0.000162778204      0.374199999     0.904892929
12.663528             0.37379586     0.905167525   0.000322871377 -0.000163225274   0.000322871376 -0.000163225274      0.374626546     0.904698394
12.663556            0.374218983     0.904974776   0.000323350222 -0.000163673626   0.000323350221 -0.000163673625      0.375053356      0.90450348
12.663584            0.374642367     0.904781652   0.000323829837 -0.000164123263   0.000323829836 -0.000164123263       0.37548043     0.904308185
12.663612            0.375066013     0.904588152   0.000324310224 -0.000164574191   0.000324310223 -0.000164574191      0.375907767     0.904112508
12.66364              0.37548992     0.904394276   0.000324791384 -0.000165026412   0.000324791383 -0.000165026412      0.376335369     0.903916449
12.663668            0.375914089     0.904200023   0.000325273318 -0.000165479932   0.000325273317 -0.000165479932      0.376763234     0.903720007
12.663696            0.376338521     0.904005391   0.000325756026 -0.000165934754   0.000325756026 -0.000165934754      0.377191363     0.903523181
12.663724            0.376763215     0.903810382   0.000326239511 -0.000166390882   0.000326239511 -0.000166390882      0.377619757     0.903325971
12.663752            0.377188171     0.903614992   0.000326723774  -0.00016684832   0.000326723773  -0.00016684832      0.378048415     0.903128375
12.66378             0.377613391     0.903419223   0.000327208814 -0.000167307073   0.000327208813 -0.000167307073      0.378477339     0.902930393
12.663808            0.378038873     0.903223072   0.000327694634 -0.000167767144   0.000327694633 -0.000167767144      0.378906527     0.902732025
12.663836            0.378464618      0.90302654   0.000328181234 -0.000168228538   0.000328181233 -0.000168228538       0.37933598     0.902533268
12.663864            0.378890627     0.902829626   0.000328668615 -0.000168691259   0.000328668614 -0.000168691259      0.379765699     0.902334123
12.663892              0.3793169     0.902632328   0.000329156779 -0.000169155311   0.000329156778 -0.000169155311      0.380195683     0.902134589
12.66392             0.379743436     0.902434646   0.000329645727 -0.000169620698   0.000329645726 -0.000169620698      0.380625933     0.901934665
12.663948            0.380170236     0.902236579   0.000330135459 -0.000170087425   0.000330135458 -0.000170087424      0.381056449     0.901734351
12.663976              0.3805973     0.902038127   0.000330625977 -0.000170555495   0.000330625976 -0.000170555494      0.381487231     0.901533644
12.664004            0.381024629     0.901839288   0.000331117281 -0.000171024912   0.000331117281 -0.000171024912      0.381918279     0.901332545
12.664032            0.381452222     0.901640063   0.000331609374 -0.000171495682   0.000331609373 -0.000171495682      0.382349594     0.901131053
12.66406              0.38188008     0.901440449   0.000332102255 -0.000171967808   0.000332102254 -0.000171967808      0.382781176     0.900929168
12.664088            0.382308202     0.901240447   0.000332595926 -0.000172441295   0.000332595925 -0.000172441294      0.383213024     0.900726887
12.664116             0.38273659     0.901040055   0.000333090388 -0.000172916146   0.000333090388 -0.000172916146       0.38364514     0.900524211
12.664144            0.383165244     0.900839273   0.000333585643 -0.000173392367   0.000333585642 -0.000173392366      0.384077523     0.900321138
12.664172            0.383594162       0.9006381    0.00033408169  -0.00017386996   0.000334081689  -0.00017386996      0.384510173     0.900117669
12.6642              0.384023347     0.900436535   0.000334578532 -0.000174348932   0.000334578531 -0.000174348932      0.384943091     0.899913801
12.664228            0.384452797     0.900234577   0.000335076169 -0.000174829286   0.000335076168 -0.000174829286      0.385376277     0.899709534
12.664256            0.384882514     0.900032226   0.000335574602 -0.000175311026   0.000335574601 -0.000175311026      0.385809731     0.899504869
12.664284            0.385312496     0.899829481   0.000336073832 -0.000175794157   0.000336073831 -0.000175794157      0.386243453     0.899299802
12.664312            0.385742746      0.89962634   0.000336573861 -0.000176278683    0.00033657386 -0.000176278683      0.386677443     0.899094335
12.66434             0.386173262     0.899422804   0.000337074689 -0.000176764609   0.000337074689 -0.000176764608      0.387111702     0.898888465
12.664368            0.386604044     0.899218872   0.000337576318 -0.000177251938   0.000337576317 -0.000177251938       0.38754623     0.898682193
12.664396            0.387035094     0.899014541   0.000338078748 -0.000177740676   0.000338078748 -0.000177740676      0.387981027     0.898475517
12.664424            0.387466412     0.898809813   0.000338581981 -0.000178230827   0.000338581981 -0.000178230827      0.388416093     0.898268437
12.664452            0.387897996     0.898604685   0.000339086018 -0.000178722395   0.000339086017 -0.000178722395      0.388851429     0.898060951
12.66448             0.388329849     0.898399158    0.00033959086 -0.000179215385   0.000339590859 -0.000179215385      0.389287034     0.897853059
12.664508            0.388761969      0.89819323   0.000340096507 -0.000179709802   0.000340096506 -0.000179709801      0.389722909      0.89764476
12.664536            0.389194357     0.897986901   0.000340602961 -0.000180205649    0.00034060296 -0.000180205648      0.390159053     0.897436054
12.664564            0.389627013     0.897780169   0.000341110222 -0.000180702931   0.000341110222 -0.000180702931      0.390595468     0.897226939
12.664592            0.390059938     0.897573034   0.000341618293 -0.000181201653   0.000341618292 -0.000181201653      0.391032154     0.897017414
12.66462             0.390493132     0.897365495   0.000342127174  -0.00018170182   0.000342127173 -0.000181701819      0.391469109      0.89680748
12.664648            0.390926594     0.897157551   0.000342636865 -0.000182203435   0.000342636865 -0.000182203435      0.391906336     0.896597134
12.664676            0.391360326     0.896949202   0.000343147369 -0.000182706504   0.000343147368 -0.000182706504      0.392343833     0.896386376
12.664704            0.391794326     0.896740446   0.000343658686 -0.000183211031   0.000343658685 -0.000183211031      0.392781601     0.896175206
12.664732            0.392228596     0.896531283   0.000344170817 -0.000183717021   0.000344170816  -0.00018371702      0.393219641     0.895963622
12.66476             0.392663136     0.896321712   0.000344683763 -0.000184224478   0.000344683762 -0.000184224477      0.393657952     0.895751623
12.664788            0.393097945     0.896111732   0.000345197525 -0.000184733407   0.000345197524 -0.000184733407      0.394096535      0.89553921
12.664816            0.393533025     0.895901342   0.000345712104 -0.000185243813   0.000345712104 -0.000185243812       0.39453539      0.89532638
12.664844            0.393968374     0.895690542   0.000346227502   -0.0001857557   0.000346227501 -0.000185755699      0.394974516     0.895113133
12.664872            0.394403994      0.89547933   0.000346743719 -0.000186269073   0.000346743718 -0.000186269072      0.395413915     0.894899468
12.6649              0.394839885     0.895267706   0.000347260756 -0.000186783937   0.000347260756 -0.000186783936      0.395853587     0.894685384
12.664928            0.395276046     0.895055669   0.000347778615 -0.000187300296   0.000347778614 -0.000187300296       0.39629353     0.894470881
12.664956            0.395712478     0.894843218   0.000348297296 -0.000187818155   0.000348297295 -0.000187818155      0.396733747     0.894255958
12.664984            0.396149182     0.894630352   0.000348816801  -0.00018833752     0.0003488168 -0.000188337519      0.397174237     0.894040613
12.665012            0.396586156      0.89441707    0.00034933713 -0.000188858394   0.000349337129 -0.000188858394         0.397615     0.893824846
12.66504             0.397023403     0.894203372   0.000349858284 -0.000189380783   0.000349858283 -0.000189380782      0.398056036     0.893608656
12.665068            0.397460921     0.893989256   0.000350380265 -0.000189904691   0.000350380264  -0.00018990469      0.398497345     0.893392043
12.665096            0.397898711     0.893774722   0.000350903073 -0.000190430123   0.000350903073 -0.000190430122      0.398938929     0.893175004
12.665124            0.398336773     0.893559769    0.00035142671 -0.000190957084    0.00035142671 -0.000190957083      0.399380786      0.89295754
12.665152            0.398775107     0.893344396   0.000351951177 -0.000191485579   0.000351951176 -0.000191485578      0.399822917     0.892739649
12.66518             0.399213714     0.893128602   0.000352476474 -0.000192015612   0.000352476473 -0.000192015612      0.400265323     0.892521331
12.665208            0.399652593     0.892912387   0.000353002603  -0.00019254719   0.000353002602 -0.000192547189      0.400708003     0.892302585
12.665236            0.400091746     0.892695749   0.000353529564 -0.000193080315   0.000353529563 -0.000193080315      0.401150958     0.892083409
12.665264            0.400531171     0.892478687   0.000354057359 -0.000193614994   0.000354057358 -0.000193614994      0.401594188     0.891863804
12.665292             0.40097087     0.892261202   0.000354585988 -0.000194151232   0.000354585988 -0.000194151232      0.402037692     0.891643767
12.66532             0.401410842     0.892043291   0.000355115454 -0.000194689033   0.000355115453 -0.000194689033      0.402481472     0.891423299
12.665348            0.401851088     0.891824953   0.000355645755 -0.000195228402   0.000355645755 -0.000195228402      0.402925527     0.891202398
12.665376            0.402291608     0.891606189   0.000356176895 -0.000195769345   0.000356176894 -0.000195769344      0.403369858     0.890981063
12.665404            0.402732401     0.891386997   0.000356708873 -0.000196311865   0.000356708872 -0.000196311865      0.403814465     0.890759294