! TOUCHSTONE file generated by CST MICROWAVE STUDIO
! Date and time: Wed Jul 31 13:30:57 2024
! Project name: WaveGuide_BPF-Ver4.1_U-shape_Ku_T3_C4_CWA_2.cst
! Parameters = {cavity_h=16; cavity_l0=10; cavity_l1=15.2333; cavity_l2=16.8453; cavity_l3=17.091; cavity_l4=17.31; cavity_l5=17.1112; cavity_l6=17.559; cavity_r=2.5; cavity_screw_l=0.5; cavity_screw_r=1.5; cavity_w=8; iris_h00=0; iris_h01=8.8251; iris_h112=0; iris_h12=5.6132; iris_h211=3.6561; iris_h23=5.1946; iris_h310=3.9763; iris_h34=5.0803; iris_h45=4.9203; iris_h49=4.6199; iris_h56=4.7903; iris_h58=4.446; iris_h67=6.587; iris_rx=0.1; iris_screw_l=0.5; iris_screw_r=1.5; iris_shift00=0; iris_shift112=0; iris_shift211=3.5; iris_shift310=0; iris_shift49=0; iris_shift58=3.5; iris_shift67=3.5; iris_tx=4.5; iris_tz=4.5; iris_w00=0; iris_w112=0; iris_w211=4; iris_w310=3.9763; iris_w49=4.6199; iris_w58=4; iris_w67=4; mesh_cavity=5; mesh_iris=7; mesh_screw=7; order=12; reset_all=0; sigma=4.8e+07}
! Header version: 2018
! Port assignment regex: !\s*Touchstone port\s*([0-9]+)\s*=\s*(CST MWS port|CST DS port)\s*([0-9]+|Zmin|Zmax)\s*\(\"(.*)\"\)(\s*mode\s*([0-9]+))?.*
! Touchstone port assignment:
! Touchstone port 1 = CST MWS port 1 ("")
! Touchstone port 2 = CST MWS port 2 ("")
# GHz S RI R 50
12.66                0.504606781     0.832925238   0.000314403596 -0.000224383255   0.000314403595 -0.000224383256      0.505635162     0.832396492
12.660028            0.505104232     0.832597811   0.000314794846 -0.000224964971   0.000314794845 -0.000224964971      0.506130944     0.832069303
12.660056             0.50560195     0.832269761   0.000315186453 -0.000225548237   0.000315186452 -0.000225548237      0.506626916     0.831741538
12.660084            0.506099919     0.831941096   0.000315578416 -0.000226133059   0.000315578415 -0.000226133059      0.507123096     0.831413184
12.660112            0.506598123     0.831611824   0.000315970735 -0.000226719439   0.000315970734 -0.000226719439        0.5076195     0.831084232
12.66014             0.507096546     0.831281953   0.000316363408 -0.000227307384   0.000316363407 -0.000227307384      0.508116144      0.83075467
12.660168            0.507595188     0.830951482   0.000316756435 -0.000227896897   0.000316756435 -0.000227896897      0.508613029     0.830424497
12.660196            0.508094059     0.830620404   0.000317149816 -0.000228487982   0.000317149815 -0.000228487982      0.509110143     0.830093718
12.660224            0.508593158     0.830288718   0.000317543549 -0.000229080644   0.000317543548 -0.000229080644      0.509607485     0.829762333
12.660252            0.509092487     0.829956423   0.000317937634 -0.000229674888   0.000317937634 -0.000229674888      0.510105057     0.829430341
12.66028             0.509592044     0.829623517    0.00031833207 -0.000230270717    0.00031833207 -0.000230270717      0.510602857     0.829097739
12.660308             0.51009183     0.829289999   0.000318726857 -0.000230868136   0.000318726857 -0.000230868136      0.511100885     0.828764528
12.660336            0.510591845     0.828955869   0.000319121994  -0.00023146715   0.000319121993  -0.00023146715      0.511599142     0.828430705
12.660364            0.511092087     0.828621126    0.00031951748 -0.000232067762   0.000319517479 -0.000232067762      0.512097626     0.828096271
12.660392            0.511592558     0.828285767   0.000319913313 -0.000232669978   0.000319913313 -0.000232669978      0.512596339     0.827761223
12.66042             0.512093256     0.827949792   0.000320309495 -0.000233273801   0.000320309494 -0.000233273802       0.51309528     0.827425561
12.660448            0.512594183       0.8276132   0.000320706023 -0.000233879237   0.000320706023 -0.000233879237      0.513594448     0.827089283
12.660476            0.513095337      0.82727599   0.000321102897  -0.00023448629   0.000321102897  -0.00023448629      0.514093844     0.826752389
12.660504            0.513596718      0.82693816   0.000321500117 -0.000235094964   0.000321500116 -0.000235094964      0.514593467     0.826414877
12.660532            0.514098326      0.82659971    0.00032189768 -0.000235705263    0.00032189768 -0.000235705263      0.515093317     0.826076746
12.66056             0.514600162     0.826260638   0.000322295588 -0.000236317193   0.000322295587 -0.000236317193      0.515593394     0.825737996
12.660588            0.515102224     0.825920943   0.000322693838 -0.000236930757   0.000322693837 -0.000236930757      0.516093698     0.825398624
12.660616            0.515604513     0.825580624    0.00032309243 -0.000237545961   0.000323092429 -0.000237545961      0.516594229     0.825058629
12.660644            0.516107029     0.825239681   0.000323491363 -0.000238162809   0.000323491363 -0.000238162809      0.517094986     0.824718012
12.660672            0.516609771     0.824898111   0.000323890637 -0.000238781305   0.000323890636 -0.000238781305      0.517595969     0.824376769
12.6607              0.517112739     0.824555913    0.00032429025 -0.000239401454    0.00032429025 -0.000239401454      0.518097179     0.824034901
12.660728            0.517615933     0.824213087   0.000324690202  -0.00024002326   0.000324690202  -0.00024002326      0.518598614     0.823692407
12.660756            0.518119353     0.823869632   0.000325090492 -0.000240646729   0.000325090491 -0.000240646729      0.519100275     0.823349284
12.660784            0.518622999     0.823525545   0.000325491118 -0.000241271865   0.000325491118 -0.000241271865      0.519602162     0.823005532
12.660812             0.51912687     0.823180827   0.000325892081 -0.000241898671   0.000325892081 -0.000241898672      0.520104274     0.822661149
12.66084             0.519630966     0.822835475   0.000326293379 -0.000242527155   0.000326293378 -0.000242527155      0.520606612     0.822316136
12.660868            0.520135287     0.822489489   0.000326695011 -0.000243157318   0.000326695011 -0.000243157318      0.521109174     0.821970489
12.660896            0.520639833     0.822142868   0.000327096977 -0.000243789167   0.000327096976 -0.000243789167      0.521611961     0.821624209
12.660924            0.521144604      0.82179561   0.000327499275 -0.000244422707   0.000327499274 -0.000244422707      0.522114973     0.821277294
12.660952            0.521649599     0.821447714   0.000327901905 -0.000245057941   0.000327901904 -0.000245057941       0.52261821     0.820929743
12.66098             0.522154819     0.821099179   0.000328304865 -0.000245694874   0.000328304865 -0.000245694874       0.52312167     0.820581554
12.661008            0.522660262     0.820750004   0.000328708155 -0.000246333512   0.000328708155 -0.000246333512      0.523625355     0.820232727
12.661036             0.52316593     0.820400188   0.000329111774 -0.000246973858   0.000329111774 -0.000246973858      0.524129264     0.819883261
12.661064            0.523671821      0.82004973   0.000329515721 -0.000247615918    0.00032951572 -0.000247615918      0.524633396     0.819533153
12.661092            0.524177936     0.819698627   0.000329919995 -0.000248259697   0.000329919994 -0.000248259697      0.525137752     0.819182404
12.66112             0.524684274      0.81934688   0.000330324594 -0.000248905199   0.000330324594 -0.000248905199      0.525642331     0.818831012
12.661148            0.525190834     0.818994487   0.000330729519 -0.000249552428   0.000330729518 -0.000249552428      0.526147133     0.818478975
12.661176            0.525697618     0.818641447   0.000331134767 -0.000250201391   0.000331134767 -0.000250201391      0.526652158     0.818126293
12.661204            0.526204625     0.818287758   0.000331540339 -0.000250852091   0.000331540338 -0.000250852091      0.527157406     0.817772964
12.661232            0.526711854      0.81793342   0.000331946232 -0.000251504533   0.000331946232 -0.000251504533      0.527662876     0.817418987
12.66126             0.527219305     0.817578431   0.000332352447 -0.000252158723   0.000332352446 -0.000252158723      0.528168568     0.817064361
12.661288            0.527726978      0.81722279   0.000332758981 -0.000252814665   0.000332758981 -0.000252814665      0.528674483     0.816709085
12.661316            0.528234873     0.816866496   0.000333165835 -0.000253472363   0.000333165834 -0.000253472363      0.529180619     0.816353157
12.661344            0.528742989     0.816509548   0.000333573006 -0.000254131824   0.000333573005 -0.000254131824      0.529686977     0.815996577
12.661372            0.529251327     0.816151944   0.000333980494 -0.000254793051   0.000333980493 -0.000254793051      0.530193557     0.815639343
12.6614              0.529759886     0.815793683   0.000334388297  -0.00025545605   0.000334388297  -0.00025545605      0.530700357     0.815281453
12.661428            0.530268666     0.815434764   0.000334796416 -0.000256120825   0.000334796415 -0.000256120825      0.531207379     0.814922908
12.661456            0.530777667     0.815075187   0.000335204848 -0.000256787382   0.000335204847 -0.000256787382      0.531714621     0.814563705
12.661484            0.531286888     0.814714949   0.000335613592 -0.000257455725   0.000335613591 -0.000257455725      0.532222084     0.814203843
12.661512            0.531796329     0.814354049   0.000336022648  -0.00025812586   0.000336022647  -0.00025812586      0.532729767     0.813843322
12.66154              0.53230599     0.813992486   0.000336432014 -0.000258797791   0.000336432013 -0.000258797791       0.53323767     0.813482139
12.661568            0.532815871      0.81363026   0.000336841689 -0.000259471523   0.000336841689 -0.000259471523      0.533745793     0.813120295
12.661596            0.533325972     0.813267368   0.000337251673 -0.000260147061   0.000337251672 -0.000260147061      0.534254136     0.812757786
12.661624            0.533836291      0.81290381   0.000337661963 -0.000260824411   0.000337661962 -0.000260824411      0.534762698     0.812394613
12.661652             0.53434683     0.812539585   0.000338072559 -0.000261503577   0.000338072558 -0.000261503577      0.535271479     0.812030774
12.66168             0.534857588      0.81217469   0.000338483459 -0.000262184565   0.000338483459 -0.000262184565      0.535780479     0.811666268
12.661708            0.535368564     0.811809125   0.000338894664 -0.000262867379   0.000338894663 -0.000262867379      0.536289698     0.811301093
12.661736            0.535879759     0.811442889    0.00033930617 -0.000263552024   0.000339306169 -0.000263552024      0.536799136     0.810935249
12.661764            0.536391171     0.811075981   0.000339717977 -0.000264238506   0.000339717977 -0.000264238506      0.537308791     0.810568734
12.661792            0.536902802     0.810708398   0.000340130084  -0.00026492683   0.000340130084  -0.00026492683      0.537818665     0.810201546
12.66182              0.53741465     0.810340141    0.00034054249 -0.000265617001    0.00034054249 -0.000265617001      0.538328756     0.809833685
12.661848            0.537926715     0.809971207   0.000340955193 -0.000266309023   0.000340955193 -0.000266309023      0.538839065      0.80946515
12.661876            0.538438998     0.809601596   0.000341368193 -0.000267002902   0.000341368192 -0.000267002903      0.539349591     0.809095939
12.661904            0.538951497     0.809231306   0.000341781487 -0.000267698644   0.000341781487 -0.000267698644      0.539860333     0.808726051
12.661932            0.539464213     0.808860336   0.000342195075 -0.000268396253   0.000342195075 -0.000268396253      0.540371293     0.808355484
12.66196             0.539977145     0.808488685   0.000342608956 -0.000269095735   0.000342608955 -0.000269095735      0.540882469     0.807984238
12.661988            0.540490294     0.808116351   0.000343023127 -0.000269797094   0.000343023127 -0.000269797094      0.541393862     0.807612311
12.662016            0.541003658     0.807743334   0.000343437589 -0.000270500336   0.000343437588 -0.000270500336       0.54190547     0.807239702
12.662044            0.541517237     0.807369631   0.000343852339 -0.000271205466   0.000343852339 -0.000271205466      0.542417294      0.80686641
12.662072            0.542031032     0.806995242   0.000344267376  -0.00027191249   0.000344267376  -0.00027191249      0.542929333     0.806492433
12.6621              0.542545042     0.806620166     0.0003446827 -0.000272621412   0.000344682699 -0.000272621412      0.543441588      0.80611777
12.662128            0.543059266     0.806244401   0.000345098308 -0.000273332238   0.000345098307 -0.000273332239      0.543954058      0.80574242
12.662156            0.543573705     0.805867946   0.000345514199 -0.000274044974   0.000345514198 -0.000274044974      0.544466742     0.805366382
12.662184            0.544088358     0.805490799   0.000345930372 -0.000274759624   0.000345930371 -0.000274759624       0.54497964     0.804989654
12.662212            0.544603225      0.80511296   0.000346346826 -0.000275476193   0.000346346825 -0.000275476193      0.545492753     0.804612235
12.66224             0.545118306     0.804734427   0.000346763558 -0.000276194688   0.000346763558 -0.000276194688      0.546006079     0.804234124
12.662268              0.5456336     0.804355199   0.000347180569 -0.000276915113   0.000347180568 -0.000276915113       0.54651962      0.80385532
12.662296            0.546149107     0.803975274   0.000347597856 -0.000277637474   0.000347597855 -0.000277637474      0.547033373      0.80347582
12.662324            0.546664827     0.803594652   0.000348015418 -0.000278361776   0.000348015417 -0.000278361776      0.547547339     0.803095625
12.662352            0.547180759     0.803213331   0.000348433253 -0.000279088024   0.000348433253 -0.000279088024      0.548061518     0.802714732
12.66238             0.547696904     0.802831309   0.000348851361 -0.000279816224   0.000348851361 -0.000279816224       0.54857591     0.802333141
12.662408             0.54821326     0.802448586    0.00034926974 -0.000280546382   0.000349269739 -0.000280546382      0.549090514      0.80195085
12.662436            0.548729828      0.80206516   0.000349688387 -0.000281278502   0.000349688387 -0.000281278502      0.549605329     0.801567858
12.662464            0.549246608      0.80168103   0.000350107302 -0.000282012591   0.000350107302 -0.000282012591      0.550120356     0.801184163
12.662492            0.549763598     0.801296195   0.000350526484 -0.000282748653   0.000350526484 -0.000282748653      0.550635595     0.800799765
12.66252             0.550280799     0.800910652    0.00035094593 -0.000283486694    0.00035094593 -0.000283486694      0.551151044     0.800414661
12.662548            0.550798211     0.800524402    0.00035136564  -0.00028422672    0.00035136564  -0.00028422672      0.551666704     0.800028851
12.662576            0.551315833     0.800137443   0.000351785612 -0.000284968736   0.000351785611 -0.000284968736      0.552182575     0.799642333
12.662604            0.551833664     0.799749772   0.000352205843 -0.000285712747   0.000352205843 -0.000285712747      0.552698655     0.799255107
12.662632            0.552351705      0.79936139   0.000352626334  -0.00028645876   0.000352626333  -0.00028645876      0.553214946      0.79886717
12.66266             0.552869955     0.798972295   0.000353047081 -0.000287206779   0.000353047081 -0.000287206779      0.553731446     0.798478522
12.662688            0.553388415     0.798582485   0.000353468084  -0.00028795681   0.000353468084  -0.00028795681      0.554248155      0.79808916
12.662716            0.553907082     0.798191959   0.000353889341 -0.000288708859   0.000353889341 -0.000288708859      0.554765073     0.797699085
12.662744            0.554425958     0.797800715   0.000354310851 -0.000289462931    0.00035431085 -0.000289462931        0.5552822     0.797308293
12.662772            0.554945042     0.797408754   0.000354732611 -0.000290219032   0.000354732611 -0.000290219032      0.555799534     0.796916786
12.6628              0.555464334     0.797016072   0.000355154621 -0.000290977168    0.00035515462 -0.000290977168      0.556317077     0.796524559
12.662828            0.555983833      0.79662267   0.000355576878 -0.000291737344   0.000355576877 -0.000291737344      0.556834828     0.796131614
12.662856            0.556503538     0.796228544   0.000355999381 -0.000292499565    0.00035599938 -0.000292499565      0.557352785     0.795737947
12.662884            0.557023451     0.795833695   0.000356422128 -0.000293263838   0.000356422127 -0.000293263838       0.55787095     0.795343559
12.662912             0.55754357     0.795438121   0.000356845118 -0.000294030169   0.000356845117 -0.000294030169      0.558389322     0.794948446
12.66294             0.558063895     0.795041821   0.000357268348 -0.000294798562   0.000357268348 -0.000294798562      0.558907899     0.794552609
12.662968            0.558584425     0.794644792   0.000357691818 -0.000295569023   0.000357691818 -0.000295569023      0.559426683     0.794156046
12.662996            0.559105161     0.794247034   0.000358115526 -0.000296341559   0.000358115525 -0.000296341559      0.559945673     0.793758755
12.663024            0.559626102     0.793848546   0.000358539469 -0.000297116175   0.000358539468 -0.000297116175      0.560464868     0.793360736
12.663052            0.560147247     0.793449326   0.000358963646 -0.000297892876   0.000358963646 -0.000297892876      0.560984267     0.792961986
12.66308             0.560668597     0.793049373   0.000359388056 -0.000298671669   0.000359388055 -0.000298671669      0.561503872     0.792562505
12.663108            0.561190151     0.792648685   0.000359812696 -0.000299452559   0.000359812695 -0.000299452559      0.562023681     0.792162291
12.663136            0.561711908     0.792247261   0.000360237565 -0.000300235553   0.000360237564 -0.000300235553      0.562543694     0.791761342
12.663164            0.562233869       0.7918451   0.000360662661 -0.000301020655    0.00036066266 -0.000301020655       0.56306391     0.791359658
12.663192            0.562756032     0.791442201   0.000361087982 -0.000301807872   0.000361087981 -0.000301807872       0.56358433     0.790957237
12.66322             0.563278398     0.791038561   0.000361513526 -0.000302597209   0.000361513526 -0.000302597209      0.564104953     0.790554077
12.663248            0.563800967      0.79063418   0.000361939292 -0.000303388673   0.000361939292 -0.000303388673      0.564625779     0.790150178
12.663276            0.564323737     0.790229056   0.000362365278 -0.000304182269   0.000362365277 -0.000304182269      0.565146807     0.789745538
12.663304            0.564846708     0.789823189   0.000362791481 -0.000304978004   0.000362791481 -0.000304978004      0.565668036     0.789340155
12.663332            0.565369881     0.789416575   0.000363217901 -0.000305775882     0.0003632179 -0.000305775882      0.566189467     0.788934029
12.66336             0.565893255     0.789009215   0.000363644534  -0.00030657591   0.000363644534  -0.00030657591        0.5667111     0.788527157
12.663388            0.566416829     0.788601107    0.00036407138 -0.000307378094    0.00036407138 -0.000307378094      0.567232933     0.788119539
12.663416            0.566940603     0.788192249   0.000364498436  -0.00030818244   0.000364498436  -0.00030818244      0.567754967     0.787711173
12.663444            0.567464576      0.78778264     0.0003649257 -0.000308988954     0.0003649257 -0.000308988954      0.568277201     0.787302057
12.663472            0.567988749     0.787372279   0.000365353171 -0.000309797642   0.000365353171 -0.000309797642      0.568799635     0.786892191
12.6635              0.568513121     0.786961164   0.000365780846  -0.00031060851   0.000365780846  -0.00031060851      0.569322268     0.786481573
12.663528            0.569037692     0.786549294   0.000366208724 -0.000311421563   0.000366208723 -0.000311421563        0.5698451     0.786070201
12.663556             0.56956246     0.786136668   0.000366636802 -0.000312236808   0.000366636801 -0.000312236808       0.57036813     0.785658074
12.663584            0.570087426     0.785723283   0.000367065079 -0.000313054251   0.000367065078 -0.000313054251      0.570891359     0.785245191
12.663612             0.57061259     0.785309139   0.000367493552 -0.000313873898   0.000367493551 -0.000313873898      0.571414786     0.784831551
12.66364              0.57113795     0.784894235   0.000367922219 -0.000314695756   0.000367922219 -0.000314695756       0.57193841     0.784417151
12.663668            0.571663508     0.784478568   0.000368351079 -0.000315519829   0.000368351078 -0.000315519829      0.572462231     0.784001991
12.663696            0.572189261     0.784062138   0.000368780129 -0.000316346124   0.000368780129 -0.000316346124      0.572986249     0.783586069
12.663724             0.57271521     0.783644943   0.000369209367 -0.000317174648   0.000369209367 -0.000317174648      0.573510464     0.783169383
12.663752            0.573241355     0.783226981   0.000369638792 -0.000318005406   0.000369638791 -0.000318005406      0.574034874     0.782751933
12.66378             0.573767694     0.782808252   0.000370068401 -0.000318838405     0.0003700684 -0.000318838406       0.57455948     0.782333717
12.663808            0.574294229     0.782388754   0.000370498191 -0.000319673651   0.000370498191 -0.000319673651       0.57508428     0.781914733
12.663836            0.574820957     0.781968485   0.000370928161  -0.00032051115   0.000370928161  -0.00032051115      0.575609276      0.78149498
12.663864            0.575347879     0.781547444   0.000371358309 -0.000321350908   0.000371358309 -0.000321350908      0.576134466     0.781074457
12.663892            0.575874995      0.78112563   0.000371788633 -0.000322192932   0.000371788632 -0.000322192932       0.57665985     0.780653162
12.66392             0.576402303     0.780703041   0.000372219129 -0.000323037227   0.000372219129 -0.000323037227      0.577185427     0.780231094
12.663948            0.576929804     0.780279675   0.000372649797   -0.0003238838   0.000372649796   -0.0003238838      0.577711198     0.779808251
12.663976            0.577457497     0.779855532   0.000373080633 -0.000324732658   0.000373080633 -0.000324732658      0.578237161     0.779384632
12.664004            0.577985382      0.77943061   0.000373511637 -0.000325583805   0.000373511636 -0.000325583805      0.578763316     0.778960235
12.664032            0.578513458     0.779004907   0.000373942804  -0.00032643725   0.000373942803  -0.00032643725      0.579289663     0.778535059
12.66406             0.579041725     0.778578422   0.000374374134 -0.000327292998   0.000374374133 -0.000327292998      0.579816202     0.778109103
12.664088            0.579570182     0.778151153   0.000374805623 -0.000328151055   0.000374805622 -0.000328151055      0.580342932     0.777682366
12.664116             0.58009883       0.7777231    0.00037523727 -0.000329011428   0.000375237269 -0.000329011428      0.580869852     0.777254844
12.664144            0.580627667      0.77729426   0.000375669072 -0.000329874123   0.000375669071 -0.000329874123      0.581396962     0.776826538
12.664172            0.581156693     0.776864632   0.000376101027 -0.000330739147   0.000376101026 -0.000330739147      0.581924263     0.776397446
12.6642              0.581685907     0.776434216   0.000376533133 -0.000331606506   0.000376533132 -0.000331606506      0.582451752     0.775967566
12.664228             0.58221531     0.776003008   0.000376965386 -0.000332476206   0.000376965386 -0.000332476206       0.58297943     0.775536897
12.664256            0.582744901     0.775571008   0.000377397786 -0.000333348254   0.000377397785 -0.000333348254      0.583507297     0.775105437
12.664284            0.583274678     0.775138215   0.000377830328 -0.000334222656   0.000377830328 -0.000334222656      0.584035352     0.774673186
12.664312            0.583804643     0.774704626   0.000378263012 -0.000335099419   0.000378263012 -0.000335099419      0.584563594      0.77424014
12.66434             0.584334795     0.774270241   0.000378695834 -0.000335978549   0.000378695834 -0.000335978549      0.585092023       0.7738063
12.664368            0.584865132     0.773835058   0.000379128793 -0.000336860053   0.000379128792 -0.000336860053      0.585620639     0.773371663
12.664396            0.585395654     0.773399075   0.000379561885 -0.000337743937   0.000379561884 -0.000337743937      0.586149441     0.772936229
12.664424            0.585926362     0.772962292   0.000379995108 -0.000338630208   0.000379995107 -0.000338630208      0.586678428     0.772499995
12.664452            0.586457254     0.772524706   0.000380428459 -0.000339518872   0.000380428459 -0.000339518872      0.587207601      0.77206296
12.66448             0.586988331     0.772086315   0.000380861937 -0.000340409937   0.000380861936 -0.000340409937      0.587736959     0.771625122
12.664508            0.587519591      0.77164712   0.000381295538 -0.000341303407   0.000381295538 -0.000341303407      0.588266501     0.771186481
12.664536            0.588051034     0.771207117    0.00038172926 -0.000342199291    0.00038172926 -0.000342199291      0.588796227     0.770747034
12.664564             0.58858266     0.770766306   0.000382163101 -0.000343097594     0.0003821631 -0.000343097594      0.589326137     0.770306781
12.664592            0.589114468     0.770324686   0.000382597058 -0.000343998324   0.000382597057 -0.000343998324      0.589856229     0.769865719
12.66462             0.589646458     0.769882253   0.000383031127 -0.000344901486   0.000383031127 -0.000344901486      0.590386503     0.769423847
12.664648            0.590178629     0.769439008   0.000383465308 -0.000345807089   0.000383465307 -0.000345807089       0.59091696     0.768981164
12.664676            0.590710981     0.768994949   0.000383899596 -0.000346715137   0.000383899595 -0.000346715137      0.591447598     0.768537668
12.664704            0.591243513     0.768550073   0.000384333989 -0.000347625639   0.000384333989 -0.000347625639      0.591978417     0.768093358
12.664732            0.591776225      0.76810438   0.000384768485   -0.0003485386   0.000384768485   -0.0003485386      0.592509417     0.767648232
12.66476             0.592309116     0.767657869   0.000385203081 -0.000349454028   0.000385203081 -0.000349454028      0.593040597     0.767202288
12.664788            0.592842186     0.767210536   0.000385637774  -0.00035037193   0.000385637774  -0.00035037193      0.593571956     0.766755526
12.664816            0.593375434     0.766762382   0.000386072562 -0.000351292311   0.000386072561 -0.000351292311      0.594103494     0.766307943
12.664844             0.59390886     0.766313404   0.000386507441 -0.000352215179   0.000386507441 -0.000352215179      0.594635211     0.765859538
12.664872            0.594442463     0.765863602   0.000386942409 -0.000353140541   0.000386942409 -0.000353140541      0.595167105      0.76541031
12.6649              0.594976243     0.765412973   0.000387377464 -0.000354068403   0.000387377463 -0.000354068403      0.595699178     0.764960256
12.664928            0.595510199     0.764961515   0.000387812601 -0.000354998772     0.0003878126 -0.000354998772      0.596231427     0.764509376
12.664956             0.59604433     0.764509229   0.000388247819 -0.000355931656   0.000388247818 -0.000355931656      0.596763853     0.764057669
12.664984            0.596578637     0.764056111   0.000388683114  -0.00035686706   0.000388683114  -0.00035686706      0.597296454     0.763605131
12.665012            0.597113119      0.76360216   0.000389118485 -0.000357804993   0.000389118484 -0.000357804993      0.597829232     0.763151763
12.66504             0.597647775     0.763147376   0.000389553927  -0.00035874546   0.000389553926  -0.00035874546      0.598362184     0.762697562
12.665068            0.598182604     0.762691755   0.000389989438 -0.000359688469   0.000389989437 -0.000359688469       0.59889531     0.762242526
12.665096            0.598717607     0.762235298   0.000390425014 -0.000360634027   0.000390425014 -0.000360634027      0.599428611     0.761786655
12.665124            0.599252782     0.761778001   0.000390860654  -0.00036158214   0.000390860654  -0.00036158214      0.599962085     0.761329947
12.665152            0.599788129     0.761319864   0.000391296354 -0.000362532816   0.000391296354 -0.000362532816      0.600495732     0.760872399
12.66518             0.600323647     0.760860886   0.000391732111 -0.000363486062   0.000391732111 -0.000363486062      0.601029551     0.760414012
12.665208            0.600859337     0.760401064   0.000392167922 -0.000364441884   0.000392167922 -0.000364441884      0.601563542     0.759954782
12.665236            0.601395196     0.759940396   0.000392603784 -0.000365400291   0.000392603784  -0.00036540029      0.602097704     0.759494709
12.665264            0.601931226     0.759478883   0.000393039694 -0.000366361287   0.000393039694 -0.000366361287      0.602632036      0.75903379
12.665292            0.602467425     0.759016521   0.000393475649 -0.000367324882   0.000393475649 -0.000367324882      0.603166539     0.758572026
12.66532             0.603003792     0.758553309   0.000393911646 -0.000368291081   0.000393911645 -0.000368291081      0.603701212     0.758109412
12.665348            0.603540328     0.758089246   0.000394347681 -0.000369259893   0.000394347681 -0.000369259893      0.604236053     0.757645949
12.665376            0.604077031     0.757624331   0.000394783752 -0.000370231323   0.000394783751 -0.000370231323      0.604771063     0.757181635
12.665404            0.604613901     0.757158561   0.000395219855  -0.00037120538   0.000395219855  -0.00037120538      0.605306241     0.756716468