! TOUCHSTONE file generated by CST MICROWAVE STUDIO
! Date and time: Wed Jul 31 13:43:13 2024
! Project name: WaveGuide_BPF-Ver4.1_U-shape_Ku_T3_C4_CWA_2.cst
! Parameters = {cavity_h=16; cavity_l0=10; cavity_l1=15.2175; cavity_l2=16.8119; cavity_l3=17.1241; cavity_l4=17.2758; cavity_l5=17.17; cavity_l6=17.6395; cavity_r=2.5; cavity_screw_l=0.5; cavity_screw_r=1.5; cavity_w=8; iris_h00=0; iris_h01=8.8023; iris_h112=0; iris_h12=5.5895; iris_h211=3.6592; iris_h23=5.2024; iris_h310=3.9799; iris_h34=5.0794; iris_h45=4.933; iris_h49=4.6251; iris_h56=4.8066; iris_h58=4.4344; iris_h67=6.58; iris_rx=0.1; iris_screw_l=0.5; iris_screw_r=1.5; iris_shift00=0; iris_shift112=0; iris_shift211=3.5; iris_shift310=0; iris_shift49=0; iris_shift58=3.5; iris_shift67=3.5; iris_tx=4.5; iris_tz=4.5; iris_w00=0; iris_w112=0; iris_w211=4; iris_w310=3.9799; iris_w49=4.6251; iris_w58=4; iris_w67=4; mesh_cavity=5; mesh_iris=7; mesh_screw=7; order=12; reset_all=0; sigma=4.8e+07}
! Header version: 2018
! Port assignment regex: !\s*Touchstone port\s*([0-9]+)\s*=\s*(CST MWS port|CST DS port)\s*([0-9]+|Zmin|Zmax)\s*\(\"(.*)\"\)(\s*mode\s*([0-9]+))?.*
! Touchstone port assignment:
! Touchstone port 1 = CST MWS port 1 ("")
! Touchstone port 2 = CST MWS port 2 ("")
# GHz S RI R 50
12.66                0.309400695      0.93133475   0.000169132193  -6.8461714e-05   0.000169132193  -6.8461714e-05      0.310155033       0.9311616
12.660028            0.309791152     0.931191756   0.000169344446  -6.8634578e-05   0.000169344445 -6.86345781e-05      0.310544131     0.931018796
12.660056            0.310181817     0.931048491   0.000169556976 -6.88078665e-05   0.000169556975 -6.88078665e-05      0.310933459     0.930875714
12.660084            0.310572695     0.930904953   0.000169769784 -6.89815802e-05   0.000169769784 -6.89815803e-05       0.31132301     0.930732358
12.660112             0.31096379     0.930761139   0.000169982871 -6.91557203e-05   0.000169982871 -6.91557203e-05      0.311712779     0.930588727
12.66014             0.311355105      0.93061705   0.000170196237 -6.93302876e-05   0.000170196236 -6.93302877e-05      0.312102762     0.930444823
12.660168            0.311746641     0.930472683   0.000170409882 -6.95052833e-05   0.000170409882 -6.95052834e-05      0.312492958     0.930300646
12.660196            0.312138395      0.93032804   0.000170623807 -6.96807086e-05   0.000170623806 -6.96807086e-05      0.312883371     0.930156193
12.660224            0.312530368      0.93018312   0.000170838011 -6.98565645e-05   0.000170838011 -6.98565645e-05      0.313274002     0.930011465
12.660252            0.312922559     0.930037922   0.000171052496  -7.0032852e-05   0.000171052495 -7.00328521e-05      0.313664849     0.929866461
12.66028             0.313314969     0.929892446    0.00017126726 -7.02095725e-05    0.00017126726 -7.02095725e-05      0.314055914      0.92972118
12.660308            0.313707598     0.929746691   0.000171482306 -7.03867268e-05   0.000171482305 -7.03867269e-05      0.314447197     0.929575623
12.660336            0.314100446     0.929600658   0.000171697632 -7.05643162e-05   0.000171697631 -7.05643163e-05      0.314838697     0.929429788
12.660364            0.314493513     0.929454345   0.000171913239 -7.07423418e-05   0.000171913238 -7.07423418e-05      0.315230415     0.929283675
12.660392            0.314886799     0.929307752   0.000172129127 -7.09208046e-05   0.000172129127 -7.09208046e-05      0.315622351     0.929137284
12.66042             0.315280304     0.929160879   0.000172345298 -7.10997058e-05   0.000172345297 -7.10997058e-05      0.316014505     0.928990614
12.660448            0.315674029     0.929013725    0.00017256175 -7.12790465e-05   0.000172561749 -7.12790465e-05      0.316406877     0.928843664
12.660476            0.316067973     0.928866289   0.000172778484 -7.14588278e-05   0.000172778484 -7.14588278e-05      0.316799467     0.928696435
12.660504            0.316462137     0.928718572   0.000172995501 -7.16390508e-05   0.000172995501 -7.16390509e-05      0.317192276     0.928548925
12.660532            0.316856521     0.928570572   0.000173212801 -7.18197168e-05     0.0001732128 -7.18197168e-05      0.317585304     0.928401135
12.66056             0.317251125      0.92842229   0.000173430383 -7.20008267e-05   0.000173430383 -7.20008267e-05       0.31797855     0.928253063
12.660588            0.317645949     0.928273724   0.000173648249 -7.21823818e-05   0.000173648248 -7.21823818e-05      0.318372014     0.928104709
12.660616            0.318040993     0.928124874   0.000173866398 -7.23643831e-05   0.000173866398 -7.23643832e-05      0.318765698     0.927956074
12.660644            0.318436258      0.92797574   0.000174084831 -7.25468319e-05   0.000174084831 -7.25468319e-05      0.319159601     0.927807155
12.660672            0.318831742     0.927826321   0.000174303548 -7.27297292e-05   0.000174303548 -7.27297292e-05      0.319553723     0.927657954
12.6607              0.319227448     0.927676617    0.00017452255 -7.29130762e-05    0.00017452255 -7.29130762e-05      0.319948064     0.927508469
12.660728            0.319623374     0.927526627   0.000174741836 -7.30968741e-05   0.000174741836 -7.30968741e-05      0.320342624     0.927358699
12.660756            0.320019521     0.927376351   0.000174961407 -7.32811239e-05   0.000174961407  -7.3281124e-05      0.320737405     0.927208645
12.660784            0.320415889     0.927225788   0.000175181263 -7.34658269e-05   0.000175181263  -7.3465827e-05      0.321132404     0.927058306
12.660812            0.320812478     0.927074938   0.000175401405 -7.36509843e-05   0.000175401404 -7.36509843e-05      0.321527624     0.926907681
12.66084             0.321209288     0.926923801   0.000175621832 -7.38365971e-05   0.000175621831 -7.38365971e-05      0.321923063      0.92675677
12.660868             0.32160632     0.926772375   0.000175842545 -7.40226665e-05   0.000175842544 -7.40226665e-05      0.322318723     0.926605572
12.660896            0.322003573      0.92662066   0.000176063544 -7.42091937e-05   0.000176063544 -7.42091938e-05      0.322714602     0.926454088
12.660924            0.322401047     0.926468656    0.00017628483 -7.43961799e-05   0.000176284829   -7.439618e-05      0.323110702     0.926302315
12.660952            0.322798744     0.926316362   0.000176506402 -7.45836263e-05   0.000176506402 -7.45836263e-05      0.323507022     0.926150255
12.66098             0.323196662     0.926163778   0.000176728261  -7.4771534e-05   0.000176728261  -7.4771534e-05      0.323903563     0.925997906
12.661008            0.323594802     0.926010904   0.000176950408 -7.49599041e-05   0.000176950408 -7.49599042e-05      0.324300324     0.925845268
12.661036            0.323993164     0.925857738   0.000177172842  -7.5148738e-05   0.000177172842  -7.5148738e-05      0.324697306      0.92569234
12.661064            0.324391748      0.92570428   0.000177395564 -7.53380367e-05   0.000177395564 -7.53380367e-05      0.325094509     0.925539122
12.661092            0.324790554      0.92555053   0.000177618574 -7.55278015e-05   0.000177618573 -7.55278015e-05      0.325491933     0.925385614
12.66112             0.325189583     0.925396488   0.000177841872 -7.57180335e-05   0.000177841871 -7.57180335e-05      0.325889578     0.925231814
12.661148            0.325588835     0.925242152   0.000178065458  -7.5908734e-05   0.000178065458  -7.5908734e-05      0.326287445     0.925077723
12.661176            0.325988309     0.925087522   0.000178289334 -7.60999041e-05   0.000178289333 -7.60999041e-05      0.326685532      0.92492334
12.661204            0.326388006     0.924932599   0.000178513498  -7.6291545e-05   0.000178513498  -7.6291545e-05      0.327083841     0.924768665
12.661232            0.326787926      0.92477738   0.000178737952  -7.6483658e-05   0.000178737952  -7.6483658e-05      0.327482372     0.924613696
12.66126             0.327188069     0.924621866   0.000178962695 -7.66762442e-05   0.000178962695 -7.66762442e-05      0.327881125     0.924458433
12.661288            0.327588435     0.924466057   0.000179187728 -7.68693048e-05   0.000179187728 -7.68693049e-05      0.328280099     0.924302877
12.661316            0.327989024     0.924309951   0.000179413051 -7.70628412e-05   0.000179413051 -7.70628412e-05      0.328679295     0.924147026
12.661344            0.328389837     0.924153548   0.000179638665 -7.72568544e-05   0.000179638664 -7.72568544e-05      0.329078714      0.92399088
12.661372            0.328790873     0.923996848   0.000179864569 -7.74513457e-05   0.000179864568 -7.74513458e-05      0.329478354     0.923834438
12.6614              0.329192133      0.92383985   0.000180090764 -7.76463164e-05   0.000180090763 -7.76463164e-05      0.329878217       0.9236777
12.661428            0.329593617     0.923682554    0.00018031725 -7.78417676e-05   0.000180317249 -7.78417676e-05      0.330278302     0.923520665
12.661456            0.329995324     0.923524959   0.000180544027 -7.80377006e-05   0.000180544026 -7.80377006e-05       0.33067861     0.923363334
12.661484            0.330397256     0.923367065   0.000180771096 -7.82341166e-05   0.000180771095 -7.82341166e-05      0.331079141     0.923205704
12.661512            0.330799411      0.92320887   0.000180998456 -7.84310169e-05   0.000180998456 -7.84310169e-05      0.331479894     0.923047777
12.66154             0.331201791     0.923050376   0.000181226109 -7.86284026e-05   0.000181226108 -7.86284026e-05       0.33188087      0.92288955
12.661568            0.331604396      0.92289158   0.000181454054 -7.88262751e-05   0.000181454053 -7.88262751e-05       0.33228207     0.922731025
12.661596            0.332007224     0.922732483   0.000181682291 -7.90246355e-05   0.000181682291 -7.90246356e-05      0.332683492     0.922572199
12.661624            0.332410278     0.922573084   0.000181910822 -7.92234852e-05   0.000181910821 -7.92234852e-05      0.333085138     0.922413074
12.661652            0.332813556     0.922413382   0.000182139645 -7.94228253e-05   0.000182139645 -7.94228254e-05      0.333487007     0.922253648
12.66168             0.333217059     0.922253377   0.000182368762 -7.96226572e-05   0.000182368762 -7.96226572e-05        0.3338891      0.92209392
12.661708            0.333620787     0.922093069   0.000182598172  -7.9822982e-05   0.000182598172 -7.98229821e-05      0.334291416     0.921933891
12.661736             0.33402474     0.921932457   0.000182827876 -8.00238011e-05   0.000182827876 -8.00238012e-05      0.334693956     0.921773559
12.661764            0.334428918      0.92177154   0.000183057875 -8.02251157e-05   0.000183057874 -8.02251158e-05       0.33509672     0.921612924
12.661792            0.334833322     0.921610318   0.000183288167 -8.04269271e-05   0.000183288167 -8.04269272e-05      0.335499708     0.921451986
12.66182             0.335237951     0.921448791   0.000183518754 -8.06292366e-05   0.000183518754 -8.06292366e-05      0.335902921     0.921290745
12.661848            0.335642805     0.921286957   0.000183749636 -8.08320453e-05   0.000183749635 -8.08320454e-05      0.336306357     0.921129198
12.661876            0.336047885     0.921124816   0.000183980813 -8.10353547e-05   0.000183980812 -8.10353547e-05      0.336710018     0.920967347
12.661904            0.336453191     0.920962368   0.000184212285 -8.12391659e-05   0.000184212284  -8.1239166e-05      0.337113903      0.92080519
12.661932            0.336858723     0.920799613   0.000184444052 -8.14434803e-05   0.000184444052 -8.14434804e-05      0.337518012     0.920642728
12.66196             0.337264481     0.920636549   0.000184676116 -8.16482992e-05   0.000184676115 -8.16482992e-05      0.337922347     0.920479958
12.661988            0.337670465     0.920473176   0.000184908475 -8.18536238e-05   0.000184908474 -8.18536238e-05      0.338326906     0.920316882
12.662016            0.338076676     0.920309494    0.00018514113 -8.20594554e-05    0.00018514113 -8.20594555e-05       0.33873169     0.920153498
12.662044            0.338483113     0.920145501   0.000185374082 -8.22657954e-05   0.000185374082 -8.22657954e-05      0.339136699     0.919989806
12.662072            0.338889776     0.919981199   0.000185607331  -8.2472645e-05    0.00018560733 -8.24726451e-05      0.339541934     0.919825805
12.6621              0.339296666     0.919816585   0.000185840876 -8.26800056e-05   0.000185840876 -8.26800056e-05      0.339947393     0.919661495
12.662128            0.339703783      0.91965166   0.000186074719 -8.28878784e-05   0.000186074719 -8.28878784e-05      0.340353079     0.919496875
12.662156            0.340111126     0.919486422   0.000186308859 -8.30962648e-05   0.000186308859 -8.30962648e-05      0.340758989     0.919331945
12.662184            0.340518697     0.919320873   0.000186543297  -8.3305166e-05   0.000186543296  -8.3305166e-05      0.341165125     0.919166704
12.662212            0.340926494     0.919155009   0.000186778032 -8.35145834e-05   0.000186778032 -8.35145834e-05      0.341571487     0.919001152
12.66224             0.341334519     0.918988832   0.000187013066 -8.37245184e-05   0.000187013066 -8.37245184e-05      0.341978075     0.918835288
12.662268            0.341742771     0.918822341   0.000187248398 -8.39349721e-05   0.000187248398 -8.39349722e-05      0.342384889     0.918669111
12.662296            0.342151251     0.918655535   0.000187484029 -8.41459461e-05   0.000187484028 -8.41459461e-05      0.342791929     0.918502621
12.662324            0.342559958     0.918488414   0.000187719958 -8.43574415e-05   0.000187719958 -8.43574416e-05      0.343199195     0.918335818
12.662352            0.342968892     0.918320976   0.000187956186 -8.45694598e-05   0.000187956186 -8.45694598e-05      0.343606687     0.918168701
12.66238             0.343378055     0.918153223   0.000188192714 -8.47820023e-05   0.000188192713 -8.47820023e-05      0.344014406     0.918001269
12.662408            0.343787446     0.917985152   0.000188429541 -8.49950702e-05    0.00018842954 -8.49950702e-05      0.344422352     0.917833522
12.662436            0.344197064     0.917816763   0.000188666668  -8.5208665e-05   0.000188666667 -8.52086651e-05      0.344830524     0.917665459
12.662464            0.344606911     0.917648057   0.000188904094  -8.5422788e-05   0.000188904094 -8.54227881e-05      0.345238923      0.91749708
12.662492            0.345016986     0.917479031   0.000189141821 -8.56374406e-05    0.00018914182 -8.56374407e-05      0.345647549     0.917328384
12.66252             0.345427289     0.917309687   0.000189379848 -8.58526241e-05   0.000189379848 -8.58526242e-05      0.346056401     0.917159371
12.662548             0.34583782     0.917140022   0.000189618176 -8.60683399e-05   0.000189618175 -8.60683399e-05      0.346465481      0.91699004
12.662576            0.346248581     0.916970038   0.000189856804 -8.62845893e-05   0.000189856804 -8.62845893e-05      0.346874788      0.91682039
12.662604             0.34665957     0.916799732   0.000190095734 -8.65013737e-05   0.000190095733 -8.65013737e-05      0.347284323     0.916650421
12.662632            0.347070788     0.916629105   0.000190334965 -8.67186945e-05   0.000190334964 -8.67186945e-05      0.347694085     0.916480133
12.66266             0.347482234     0.916458155   0.000190574497  -8.6936553e-05   0.000190574496  -8.6936553e-05      0.348104074     0.916309524
12.662688             0.34789391     0.916286884   0.000190814331 -8.71549507e-05    0.00019081433 -8.71549507e-05      0.348514292     0.916138595
12.662716            0.348305815     0.916115288   0.000191054466 -8.73738888e-05   0.000191054466 -8.73738888e-05      0.348924737     0.915967344
12.662744            0.348717949      0.91594337   0.000191294904 -8.75933689e-05   0.000191294904 -8.75933689e-05       0.34933541     0.915795772
12.662772            0.349130313     0.915771127   0.000191535645 -8.78133922e-05   0.000191535644 -8.78133922e-05      0.349746311     0.915623877
12.6628              0.349542906     0.915598559   0.000191776687 -8.80339602e-05   0.000191776687 -8.80339602e-05       0.35015744      0.91545166
12.662828            0.349955729     0.915425665   0.000192018033 -8.82550742e-05   0.000192018033 -8.82550742e-05      0.350568797     0.915279118
12.662856            0.350368781     0.915252446   0.000192259682 -8.84767357e-05   0.000192259681 -8.84767357e-05      0.350980383     0.915106253
12.662884            0.350782064     0.915078899   0.000192501633 -8.86989461e-05   0.000192501633 -8.86989461e-05      0.351392197     0.914933063
12.662912            0.351195576     0.914905026   0.000192743888 -8.89217067e-05   0.000192743888 -8.89217067e-05       0.35180424     0.914759548
12.66294             0.351609318     0.914730825   0.000192986447  -8.9145019e-05   0.000192986447  -8.9145019e-05      0.352216511     0.914585707
12.662968            0.352023291     0.914556296   0.000193229309 -8.93688844e-05   0.000193229309 -8.93688844e-05      0.352629011     0.914411539
12.662996            0.352437493     0.914381438   0.000193472476 -8.95933043e-05   0.000193472476 -8.95933043e-05      0.353041741     0.914237045
12.663024            0.352851927      0.91420625   0.000193715947 -8.98182801e-05   0.000193715946 -8.98182801e-05      0.353454699     0.914062223
12.663052             0.35326659     0.914030732   0.000193959722 -9.00438133e-05   0.000193959721 -9.00438133e-05      0.353867886     0.913887073
12.66308             0.353681484     0.913854884   0.000194203802 -9.02699052e-05   0.000194203801 -9.02699052e-05      0.354281303     0.913711595
12.663108            0.354096609     0.913678704   0.000194448186 -9.04965573e-05   0.000194448186 -9.04965574e-05      0.354694949     0.913535787
12.663136            0.354511965     0.913502193   0.000194692876 -9.07237711e-05   0.000194692875 -9.07237712e-05      0.355108824     0.913359649
12.663164            0.354927552     0.913325349   0.000194937871  -9.0951548e-05    0.00019493787  -9.0951548e-05      0.355522929     0.913183181
12.663192             0.35534337     0.913148172   0.000195183171 -9.11798894e-05   0.000195183171 -9.11798894e-05      0.355937264     0.913006382
12.66322             0.355759419     0.912970662   0.000195428777 -9.14087968e-05   0.000195428777 -9.14087968e-05      0.356351828     0.912829252
12.663248            0.356175699     0.912792818   0.000195674689 -9.16382715e-05   0.000195674688 -9.16382715e-05      0.356766623     0.912651789
12.663276            0.356592211     0.912614639   0.000195920907 -9.18683152e-05   0.000195920906 -9.18683152e-05      0.357181647     0.912473994
12.663304            0.357008954     0.912436124   0.000196167431 -9.20989291e-05    0.00019616743 -9.20989292e-05      0.357596902     0.912295865
12.663332            0.357425928     0.912257274   0.000196414261 -9.23301149e-05   0.000196414261 -9.23301149e-05      0.358012386     0.912117402
12.66336             0.357843135     0.912078087   0.000196661398 -9.25618739e-05   0.000196661398 -9.25618739e-05      0.358428101     0.911938605
12.663388            0.358260573     0.911898563   0.000196908842 -9.27942076e-05   0.000196908842 -9.27942077e-05      0.358844047     0.911759473
12.663416            0.358678243     0.911718702   0.000197156593 -9.30271176e-05   0.000197156592 -9.30271176e-05      0.359260223     0.911580006
12.663444            0.359096145     0.911538502   0.000197404651 -9.32606051e-05    0.00019740465 -9.32606052e-05       0.35967663     0.911400202
12.663472             0.35951428     0.911357963   0.000197653016 -9.34946719e-05   0.000197653016 -9.34946719e-05      0.360093267     0.911220061
12.6635              0.359932646     0.911177085   0.000197901689 -9.37293192e-05   0.000197901689 -9.37293193e-05      0.360510135     0.911039583
12.663528            0.360351245     0.910995867    0.00019815067 -9.39645487e-05   0.000198150669 -9.39645487e-05      0.360927235     0.910858766
12.663556            0.360770077     0.910814308   0.000198399959 -9.42003618e-05   0.000198399958 -9.42003618e-05      0.361344565     0.910677612
12.663584            0.361189141     0.910632408   0.000198649555   -9.443676e-05   0.000198649555   -9.443676e-05      0.361762126     0.910496118
12.663612            0.361608437     0.910450166    0.00019889946 -9.46737448e-05    0.00019889946 -9.46737448e-05      0.362179919     0.910314284
12.66364             0.362027967     0.910267581   0.000199149674 -9.49113177e-05   0.000199149673 -9.49113177e-05      0.362597943      0.91013211
12.663668            0.362447729     0.910084654   0.000199400196 -9.51494802e-05   0.000199400196 -9.51494802e-05      0.363016199     0.909949594
12.663696            0.362867724     0.909901382   0.000199651027 -9.53882338e-05   0.000199651027 -9.53882338e-05      0.363434687     0.909766738
12.663724            0.363287953     0.909717767   0.000199902167 -9.56275801e-05   0.000199902167 -9.56275801e-05      0.363853406     0.909583539
12.663752            0.363708414     0.909533806   0.000200153616 -9.58675205e-05   0.000200153616 -9.58675205e-05      0.364272356     0.909399997
12.66378             0.364129109       0.9093495   0.000200405375 -9.61080565e-05   0.000200405374 -9.61080566e-05      0.364691539     0.909216112
12.663808            0.364550037     0.909164848   0.000200657443 -9.63491898e-05   0.000200657443 -9.63491898e-05      0.365110954     0.909031883
12.663836            0.364971199      0.90897985   0.000200909821 -9.65909218e-05    0.00020090982 -9.65909218e-05      0.365530601     0.908847309
12.663864            0.365392594     0.908794503   0.000201162509 -9.68332541e-05   0.000201162508 -9.68332541e-05       0.36595048      0.90866239
12.663892            0.365814224     0.908608809   0.000201415506 -9.70761881e-05   0.000201415506 -9.70761881e-05      0.366370591     0.908477125
12.66392             0.366236086     0.908422767   0.000201668814 -9.73197255e-05   0.000201668814 -9.73197255e-05      0.366790935     0.908291514
12.663948            0.366658183     0.908236375   0.000201922433 -9.75638678e-05   0.000201922432 -9.75638678e-05      0.367211512     0.908105555
12.663976            0.367080514     0.908049633   0.000202176362 -9.78086165e-05   0.000202176361 -9.78086165e-05      0.367632321     0.907919249
12.664004            0.367503079     0.907862541   0.000202430601 -9.80539732e-05   0.000202430601 -9.80539732e-05      0.368053363     0.907732595
12.664032            0.367925878     0.907675098   0.000202685152 -9.82999394e-05   0.000202685152 -9.82999394e-05      0.368474637     0.907545592
12.66406             0.368348912     0.907487303   0.000202940014 -9.85465168e-05   0.000202940013 -9.85465168e-05      0.368896145     0.907358239
12.664088             0.36877218     0.907299156   0.000203195186 -9.87937068e-05   0.000203195186 -9.87937068e-05      0.369317886     0.907170536
12.664116            0.369195683     0.907110656   0.000203450671  -9.9041511e-05    0.00020345067  -9.9041511e-05      0.369739859     0.906982483
12.664144             0.36961942     0.906921803   0.000203706466  -9.9289931e-05   0.000203706466  -9.9289931e-05      0.370162066     0.906794078
12.664172            0.370043392     0.906732595   0.000203962574 -9.95389685e-05   0.000203962573 -9.95389685e-05      0.370584507     0.906605321
12.6642              0.370467599     0.906543032   0.000204218993 -9.97886248e-05   0.000204218993 -9.97886249e-05      0.371007181     0.906416211
12.664228             0.37089204     0.906353114   0.000204475724 -0.000100038902   0.000204475724 -0.000100038902      0.371430088     0.906226748
12.664256            0.371316717      0.90616284   0.000204732768 -0.000100289801   0.000204732767 -0.000100289801      0.371853229     0.906036932
12.664284            0.371741629      0.90597221   0.000204990123 -0.000100541324   0.000204990123 -0.000100541324      0.372276604     0.905846761
12.664312            0.372166776     0.905781222   0.000205247791 -0.000100793472   0.000205247791 -0.000100793472      0.372700212     0.905656234
12.66434             0.372592159     0.905589876   0.000205505772 -0.000101046247   0.000205505772 -0.000101046247      0.373124055     0.905465352
12.664368            0.373017777     0.905398171   0.000205764065  -0.00010129965   0.000205764065  -0.00010129965      0.373548131     0.905274114
12.664396             0.37344363     0.905206107   0.000206022672 -0.000101553684   0.000206022671 -0.000101553684      0.373972442     0.905082519
12.664424            0.373869719     0.905013684   0.000206281591  -0.00010180835   0.000206281591  -0.00010180835      0.374396987     0.904890566
12.664452            0.374296044     0.904820899   0.000206540824 -0.000102063649   0.000206540823 -0.000102063649      0.374821766     0.904698254
12.66448             0.374722605     0.904627754   0.000206800369 -0.000102319582   0.000206800369 -0.000102319582       0.37524678     0.904505584
12.664508            0.375149401     0.904434247   0.000207060229 -0.000102576153   0.000207060228 -0.000102576153      0.375672028     0.904312554
12.664536            0.375576434     0.904240377   0.000207320402 -0.000102833362   0.000207320401 -0.000102833362      0.376097511     0.904119164
12.664564            0.376003703     0.904046145   0.000207580888  -0.00010309121   0.000207580888  -0.00010309121      0.376523228     0.903925414
12.664592            0.376431208     0.903851548   0.000207841689   -0.0001033497   0.000207841688   -0.0001033497      0.376949181     0.903731301
12.66462             0.376858949     0.903656588   0.000208102803 -0.000103608834   0.000208102803 -0.000103608834      0.377375368     0.903536827
12.664648            0.377286927     0.903461262   0.000208364232 -0.000103868612   0.000208364231 -0.000103868612       0.37780179      0.90334199
12.664676            0.377715141     0.903265571   0.000208625974 -0.000104129036   0.000208625974 -0.000104129036      0.378228448     0.903146789
12.664704            0.378143592     0.903069513   0.000208888031 -0.000104390109   0.000208888031 -0.000104390109       0.37865534     0.902951225
12.664732            0.378572279     0.902873088   0.000209150403 -0.000104651831   0.000209150403 -0.000104651831      0.379082468     0.902755296
12.66476             0.379001203     0.902676296   0.000209413089 -0.000104914205   0.000209413089 -0.000104914205      0.379509832     0.902559001
12.664788            0.379430364     0.902479135    0.00020967609 -0.000105177232    0.00020967609 -0.000105177232       0.37993743     0.902362341
12.664816            0.379859763     0.902281605   0.000209939406 -0.000105440914   0.000209939406 -0.000105440914      0.380365265     0.902165313
12.664844            0.380289398     0.902083706   0.000210203037 -0.000105705252   0.000210203037 -0.000105705252      0.380793335     0.901967919
12.664872             0.38071927     0.901885437   0.000210466983 -0.000105970248   0.000210466983 -0.000105970248       0.38122164     0.901770157
12.6649               0.38114938     0.901686796   0.000210731244 -0.000106235904   0.000210731244 -0.000106235904      0.381650182     0.901572026
12.664928            0.381579727     0.901487784   0.000210995821 -0.000106502222   0.000210995821 -0.000106502222      0.382078959     0.901373525
12.664956            0.382010311       0.9012884   0.000211260713 -0.000106769203   0.000211260713 -0.000106769203      0.382507973     0.901174655
12.664984            0.382441133     0.901088643   0.000211525921 -0.000107036848    0.00021152592 -0.000107036848      0.382937223     0.900975414
12.665012            0.382872193     0.900888512   0.000211791444 -0.000107305161   0.000211791443 -0.000107305161      0.383366708     0.900775802
12.66504              0.38330349     0.900688007   0.000212057283 -0.000107574141   0.000212057282 -0.000107574141      0.383796431     0.900575819
12.665068            0.383735025     0.900487127   0.000212323438 -0.000107843792   0.000212323437 -0.000107843792      0.384226389     0.900375462
12.665096            0.384166799     0.900285871   0.000212589909 -0.000108114114   0.000212589908 -0.000108114114      0.384656584     0.900174733
12.665124             0.38459881     0.900084239   0.000212856696 -0.000108385109   0.000212856695 -0.000108385109      0.385087016     0.899973629
12.665152            0.385031059     0.899882231   0.000213123799  -0.00010865678   0.000213123798  -0.00010865678      0.385517684     0.899772151
12.66518             0.385463546     0.899679844   0.000213391218 -0.000108929128   0.000213391218 -0.000108929128      0.385948589     0.899570298
12.665208            0.385896272      0.89947708   0.000213658954 -0.000109202154   0.000213658954 -0.000109202154      0.386379731     0.899368068
12.665236            0.386329235     0.899273936   0.000213927006 -0.000109475861   0.000213927006 -0.000109475861       0.38681111     0.899165463
12.665264            0.386762438     0.899070413   0.000214195375 -0.000109750249   0.000214195375 -0.000109750249      0.387242726      0.89896248
12.665292            0.387195879     0.898866509   0.000214464061 -0.000110025322   0.000214464061 -0.000110025322      0.387674579     0.898759119
12.66532             0.387629558     0.898662225   0.000214733063  -0.00011030108   0.000214733063  -0.00011030108      0.388106669     0.898555379
12.665348            0.388063476     0.898457558   0.000215002382 -0.000110577525   0.000215002382 -0.000110577525      0.388538997      0.89835126
12.665376            0.388497633      0.89825251   0.000215272019  -0.00011085466   0.000215272018  -0.00011085466      0.388971562     0.898146762
12.665404            0.388932029     0.898047078   0.000215541972 -0.000111132485   0.000215541971 -0.000111132485      0.389404364     0.897941882