! TOUCHSTONE file generated by CST MICROWAVE STUDIO
! Date and time: Wed Jul 31 13:52:28 2024
! Project name: WaveGuide_BPF-Ver4.1_U-shape_Ku_T3_C4_CWA_2.cst
! Parameters = {cavity_h=16; cavity_l0=10; cavity_l1=15.2135; cavity_l2=16.8038; cavity_l3=17.0974; cavity_l4=17.2468; cavity_l5=17.1379; cavity_l6=17.6356; cavity_r=2.5; cavity_screw_l=0.5; cavity_screw_r=1.5; cavity_w=8; iris_h00=0; iris_h01=8.8178; iris_h112=0; iris_h12=5.5949; iris_h211=3.6552; iris_h23=5.1988; iris_h310=3.9645; iris_h34=5.0685; iris_h45=4.9284; iris_h49=4.6236; iris_h56=4.8095; iris_h58=4.4356; iris_h67=6.5714; iris_rx=0.1; iris_screw_l=0.5; iris_screw_r=1.5; iris_shift00=0; iris_shift112=0; iris_shift211=3.5; iris_shift310=0; iris_shift49=0; iris_shift58=3.5; iris_shift67=3.5; iris_tx=4.5; iris_tz=4.5; iris_w00=0; iris_w112=0; iris_w211=4; iris_w310=3.9645; iris_w49=4.6236; iris_w58=4; iris_w67=4; mesh_cavity=5; mesh_iris=7; mesh_screw=7; order=12; reset_all=0; sigma=4.8e+07}
! Header version: 2018
! Port assignment regex: !\s*Touchstone port\s*([0-9]+)\s*=\s*(CST MWS port|CST DS port)\s*([0-9]+|Zmin|Zmax)\s*\(\"(.*)\"\)(\s*mode\s*([0-9]+))?.*
! Touchstone port assignment:
! Touchstone port 1 = CST MWS port 1 ("")
! Touchstone port 2 = CST MWS port 2 ("")
# GHz S RI R 50
12.66                0.352718108     0.914758537   0.000171630408 -7.89555396e-05   0.000171630408 -7.89555393e-05      0.351335943     0.915229785
12.660028             0.35312284     0.914588095   0.000171841216 -7.91500367e-05   0.000171841215 -7.91500365e-05      0.351743188     0.915058983
12.660056             0.35352777     0.914417349   0.000172052284 -7.93450105e-05   0.000172052284 -7.93450103e-05        0.3521507     0.914887849
12.660084            0.353932903     0.914246297   0.000172263616 -7.95404611e-05   0.000172263615 -7.95404608e-05      0.352558458     0.914716389
12.660112            0.354338247     0.914074933    0.00017247521 -7.97363885e-05    0.00017247521 -7.97363883e-05      0.352966438     0.914544612
12.66014              0.35474381     0.913903256    0.00017268707  -7.9932793e-05    0.00017268707 -7.99327927e-05      0.353374621     0.914372526
12.660168            0.355149592     0.913731265   0.000172899195 -8.01296756e-05   0.000172899195 -8.01296754e-05      0.353783005     0.914200129
12.660196            0.355555588     0.913558961   0.000173111585 -8.03270384e-05   0.000173111585 -8.03270382e-05      0.354191606     0.914027417
12.660224            0.355961798     0.913386343    0.00017332424 -8.05248827e-05    0.00017332424 -8.05248824e-05      0.354600423     0.913854388
12.660252            0.356368222     0.913213411    0.00017353716 -8.07232096e-05    0.00017353716 -8.07232093e-05      0.355009456     0.913681042
12.66028              0.35677486     0.913040164   0.000173750346 -8.09220203e-05   0.000173750345   -8.092202e-05      0.355418707     0.913507378
12.660308            0.357181713     0.912866603   0.000173963797 -8.11213162e-05   0.000173963796 -8.11213159e-05      0.355828174     0.913333396
12.660336             0.35758878     0.912692726   0.000174177513 -8.13210984e-05   0.000174177513 -8.13210981e-05      0.356237858     0.913159095
12.660364            0.357996061     0.912518533   0.000174391496 -8.15213682e-05   0.000174391496  -8.1521368e-05      0.356647758     0.912984476
12.660392            0.358403557     0.912344023   0.000174605745 -8.17221269e-05   0.000174605745 -8.17221266e-05      0.357057876     0.912809536
12.66042             0.358811268     0.912169196   0.000174820261 -8.19233757e-05    0.00017482026 -8.19233754e-05      0.357468211     0.912634276
12.660448            0.359219194     0.911994051   0.000175035043 -8.21251158e-05   0.000175035043 -8.21251156e-05      0.357878763     0.912458695
12.660476            0.359627334     0.911818588   0.000175250092 -8.23273486e-05   0.000175250092 -8.23273483e-05      0.358289532     0.912282793
12.660504             0.36003569     0.911642806   0.000175465408 -8.25300752e-05   0.000175465408  -8.2530075e-05      0.358700518     0.912106569
12.660532             0.36044426     0.911466705   0.000175680992  -8.2733297e-05   0.000175680992 -8.27332968e-05      0.359111722     0.911930022
12.66056             0.360853045     0.911290284   0.000175896843 -8.29370153e-05   0.000175896843  -8.2937015e-05      0.359523143     0.911753152
12.660588            0.361262046     0.911113543   0.000176112962 -8.31412312e-05   0.000176112961 -8.31412309e-05      0.359934782     0.911575959
12.660616            0.361671262     0.910936481   0.000176329348 -8.33459461e-05   0.000176329348 -8.33459458e-05      0.360346639     0.911398442
12.660644            0.362080693     0.910759097   0.000176546003 -8.35511612e-05   0.000176546003 -8.35511609e-05      0.360758713       0.9112206
12.660672            0.362490339     0.910581392   0.000176762926 -8.37568778e-05   0.000176762926 -8.37568776e-05      0.361171005     0.911042433
12.6607              0.362900201     0.910403364   0.000176980118 -8.39630973e-05   0.000176980117 -8.39630971e-05      0.361583515      0.91086394
12.660728            0.363310278     0.910225013   0.000177197578 -8.41698209e-05   0.000177197578 -8.41698206e-05      0.361996243     0.910685121
12.660756            0.363720572     0.910046338   0.000177415307 -8.43770499e-05   0.000177415307 -8.43770496e-05      0.362409189     0.910505976
12.660784             0.36413108     0.909867339   0.000177633306 -8.45847856e-05   0.000177633306 -8.45847853e-05      0.362822353     0.910326502
12.660812            0.364541805     0.909688016   0.000177851574 -8.47930293e-05   0.000177851573  -8.4793029e-05      0.363235736     0.910146701
12.66084             0.364952746     0.909508367   0.000178070111 -8.50017823e-05   0.000178070111  -8.5001782e-05      0.363649336     0.909966572
12.660868            0.365363902     0.909328392   0.000178288918 -8.52110459e-05   0.000178288918 -8.52110456e-05      0.364063155     0.909786113
12.660896            0.365775274     0.909148092   0.000178507995 -8.54208214e-05   0.000178507995 -8.54208211e-05      0.364477192     0.909605325
12.660924            0.366186863     0.908967464   0.000178727343 -8.56311102e-05   0.000178727342 -8.56311099e-05      0.364891448     0.909424207
12.660952            0.366598668     0.908786509    0.00017894696 -8.58419135e-05    0.00017894696 -8.58419132e-05      0.365305923     0.909242758
12.66098             0.367010689     0.908605226   0.000179166849 -8.60532327e-05   0.000179166848 -8.60532324e-05      0.365720616     0.909060977
12.661008            0.367422926     0.908423614   0.000179387008  -8.6265069e-05   0.000179387007 -8.62650688e-05      0.366135528     0.908878865
12.661036             0.36783538     0.908241674   0.000179607437  -8.6477424e-05   0.000179607437 -8.64774237e-05      0.366550659     0.908696421
12.661064             0.36824805     0.908059404   0.000179828139 -8.66902987e-05   0.000179828138 -8.66902984e-05      0.366966008     0.908513644
12.661092            0.368660937     0.907876803   0.000180049111 -8.69036947e-05    0.00018004911 -8.69036944e-05      0.367381577     0.908330533
12.66112              0.36907404     0.907693873   0.000180270355 -8.71176132e-05   0.000180270354 -8.71176129e-05      0.367797365     0.908147088
12.661148             0.36948736      0.90751061   0.000180491871 -8.73320556e-05    0.00018049187 -8.73320553e-05      0.368213371     0.907963309
12.661176            0.369900897     0.907327016   0.000180713658 -8.75470232e-05   0.000180713658 -8.75470229e-05      0.368629597     0.907779194
12.661204            0.370314651      0.90714309   0.000180935718 -8.77625174e-05   0.000180935717 -8.77625171e-05      0.369046043     0.907594744
12.661232            0.370728622     0.906958831    0.00018115805 -8.79785395e-05   0.000181158049 -8.79785392e-05      0.369462707     0.907409958
12.66126              0.37114281     0.906774238   0.000181380654 -8.81950909e-05   0.000181380654 -8.81950906e-05      0.369879592     0.907224834
12.661288            0.371557214     0.906589311   0.000181603532 -8.84121729e-05   0.000181603531 -8.84121726e-05      0.370296695     0.907039374
12.661316            0.371971836     0.906404049   0.000181826682  -8.8629787e-05   0.000181826681 -8.86297867e-05      0.370714018     0.906853575
12.661344            0.372386675     0.906218453   0.000182050105 -8.88479344e-05   0.000182050105 -8.88479341e-05      0.371131561     0.906667438
12.661372            0.372801732     0.906032521   0.000182273802 -8.90666166e-05   0.000182273801 -8.90666163e-05      0.371549324     0.906480961
12.6614              0.373217006     0.905846252   0.000182497771 -8.92858349e-05   0.000182497771 -8.92858346e-05      0.371967306     0.906294145
12.661428            0.373632497     0.905659646   0.000182722015 -8.95055907e-05   0.000182722015 -8.95055904e-05      0.372385508     0.906106989
12.661456            0.374048206     0.905472704   0.000182946532 -8.97258854e-05   0.000182946532 -8.97258851e-05      0.372803931     0.905919492
12.661484            0.374464132     0.905285423   0.000183171324 -8.99467203e-05   0.000183171323 -8.99467201e-05      0.373222573     0.905731653
12.661512            0.374880277     0.905097803   0.000183396389  -9.0168097e-05   0.000183396389 -9.01680967e-05      0.373641435     0.905543472
12.66154             0.375296638     0.904909845   0.000183621729 -9.03900167e-05   0.000183621729 -9.03900164e-05      0.374060518     0.905354949
12.661568            0.375713218     0.904721546   0.000183847344 -9.06124808e-05   0.000183847343 -9.06124805e-05       0.37447982     0.905166083
12.661596            0.376130016     0.904532908   0.000184073233 -9.08354908e-05   0.000184073233 -9.08354905e-05      0.374899343     0.904976873
12.661624            0.376547031     0.904343929   0.000184299397  -9.1059048e-05   0.000184299397 -9.10590478e-05      0.375319087     0.904787318
12.661652            0.376964265     0.904154608   0.000184525837  -9.1283154e-05   0.000184525836 -9.12831537e-05       0.37573905     0.904597419
12.66168             0.377381716     0.903964945   0.000184752551   -9.150781e-05   0.000184752551 -9.15078097e-05      0.376159235     0.904407174
12.661708            0.377799386      0.90377494   0.000184979541 -9.17330175e-05   0.000184979541 -9.17330172e-05       0.37657964     0.904216583
12.661736            0.378217274     0.903584591   0.000185206807 -9.19587779e-05   0.000185206806 -9.19587776e-05      0.377000265     0.904025646
12.661764             0.37863538     0.903393899   0.000185434348 -9.21850927e-05   0.000185434348 -9.21850924e-05      0.377421112     0.903834361
12.661792            0.379053705     0.903202863   0.000185662166 -9.24119632e-05   0.000185662165 -9.24119629e-05      0.377842179     0.903642729
12.66182             0.379472248     0.903011481   0.000185890259  -9.2639391e-05   0.000185890259 -9.26393907e-05      0.378263467     0.903450748
12.661848            0.379891009     0.902819755   0.000186118629 -9.28673774e-05   0.000186118629 -9.28673771e-05      0.378684976     0.903258418
12.661876            0.380309989     0.902627682   0.000186347276 -9.30959238e-05   0.000186347275 -9.30959235e-05      0.379106705     0.903065738
12.661904            0.380729188     0.902435263   0.000186576199 -9.33250318e-05   0.000186576198 -9.33250315e-05      0.379528656     0.902872709
12.661932            0.381148605     0.902242496   0.000186805399 -9.35547028e-05   0.000186805398 -9.35547025e-05      0.379950828     0.902679328
12.66196             0.381568241     0.902049382   0.000187034876 -9.37849381e-05   0.000187034875 -9.37849378e-05      0.380373222     0.902485597
12.661988            0.381988096     0.901855919    0.00018726463 -9.40157394e-05   0.000187264629 -9.40157391e-05      0.380795836     0.902291513
12.662016             0.38240817     0.901662107   0.000187494661 -9.42471079e-05   0.000187494661 -9.42471076e-05      0.381218672     0.902097077
12.662044            0.382828463     0.901467946    0.00018772497 -9.44790453e-05    0.00018772497  -9.4479045e-05      0.381641729     0.901902287
12.662072            0.383248975     0.901273435   0.000187955557 -9.47115529e-05   0.000187955556 -9.47115526e-05      0.382065008     0.901707144
12.6621              0.383669706     0.901078572   0.000188186421 -9.49446323e-05   0.000188186421  -9.4944632e-05      0.382488508     0.901511647
12.662128            0.384090656     0.900883359   0.000188417564 -9.51782848e-05   0.000188417563 -9.51782845e-05       0.38291223     0.901315794
12.662156            0.384511825     0.900687794   0.000188648985  -9.5412512e-05   0.000188648984 -9.54125117e-05      0.383336173     0.901119586
12.662184            0.384933214     0.900491876   0.000188880684 -9.56473154e-05   0.000188880683 -9.56473152e-05      0.383760338     0.900923022
12.662212            0.385354822     0.900295605   0.000189112661 -9.58826965e-05   0.000189112661 -9.58826962e-05      0.384184725     0.900726101
12.66224             0.385776649      0.90009898   0.000189344918 -9.61186567e-05   0.000189344917 -9.61186564e-05      0.384609334     0.900528823
12.662268            0.386198696     0.899902001   0.000189577453 -9.63551975e-05   0.000189577452 -9.63551972e-05      0.385034165     0.900331187
12.662296            0.386620962     0.899704668   0.000189810267 -9.65923205e-05   0.000189810266 -9.65923202e-05      0.385459217     0.900133192
12.662324            0.387043448     0.899506978    0.00019004336 -9.68300271e-05   0.000190043359 -9.68300268e-05      0.385884492     0.899934838
12.662352            0.387466154     0.899308933   0.000190276732 -9.70683188e-05   0.000190276732 -9.70683185e-05      0.386309989     0.899736124
12.66238             0.387889079     0.899110531   0.000190510384 -9.73071972e-05   0.000190510384 -9.73071969e-05      0.386735708      0.89953705
12.662408            0.388312224     0.898911771   0.000190744316 -9.75466638e-05   0.000190744315 -9.75466634e-05      0.387161649     0.899337615
12.662436            0.388735589     0.898712654   0.000190978527   -9.778672e-05   0.000190978526 -9.77867197e-05      0.387587812     0.899137818
12.662464            0.389159173     0.898513178   0.000191213018 -9.80273674e-05   0.000191213017 -9.80273671e-05      0.388014198      0.89893766
12.662492            0.389582978     0.898313344   0.000191447789 -9.82686076e-05   0.000191447789 -9.82686073e-05      0.388440806     0.898737138
12.66252             0.390007003     0.898113149    0.00019168284  -9.8510442e-05    0.00019168284 -9.85104417e-05      0.388867636     0.898536252
12.662548            0.390431247     0.897912594   0.000191918172 -9.87528723e-05   0.000191918172 -9.87528719e-05      0.389294689     0.898335003
12.662576            0.390855712     0.897711678   0.000192153784 -9.89958998e-05   0.000192153784 -9.89958995e-05      0.389721965     0.898133389
12.662604            0.391280397     0.897510401   0.000192389677 -9.92395263e-05   0.000192389677 -9.92395259e-05      0.390149463      0.89793141
12.662632            0.391705303     0.897308761   0.000192625851 -9.94837531e-05    0.00019262585 -9.94837528e-05      0.390577184     0.897729064
12.66266             0.392130428     0.897106759   0.000192862305  -9.9728582e-05   0.000192862305 -9.97285816e-05      0.391005128     0.897526353
12.662688            0.392555774     0.896904393   0.000193099041 -9.99740143e-05    0.00019309904  -9.9974014e-05      0.391433294     0.897323274
12.662716            0.392981341     0.896701664   0.000193336058 -0.000100220052   0.000193336057 -0.000100220051      0.391861683     0.897119827
12.662744            0.393407127     0.896498569   0.000193573356 -0.000100466696   0.000193573356 -0.000100466696      0.392290296     0.896916011
12.662772            0.393833135      0.89629511   0.000193810936 -0.000100713948   0.000193810935 -0.000100713948      0.392719131     0.896711827
12.6628              0.394259363     0.896091285   0.000194048797  -0.00010096181   0.000194048797  -0.00010096181      0.393148189     0.896507273
12.662828            0.394685811     0.895887093    0.00019428694 -0.000101210284    0.00019428694 -0.000101210283       0.39357747     0.896302349
12.662856             0.39511248     0.895682534   0.000194525365  -0.00010145937   0.000194525365  -0.00010145937      0.394006974     0.896097053
12.662884             0.39553937     0.895477607   0.000194764072 -0.000101709071   0.000194764072 -0.000101709071      0.394436702     0.895891386
12.662912            0.395966481     0.895272312   0.000195003061 -0.000101959388   0.000195003061 -0.000101959388      0.394866653     0.895685347
12.66294             0.396393813     0.895066648   0.000195242333 -0.000102210323   0.000195242332 -0.000102210323      0.395296827     0.895478935
12.662968            0.396821365     0.894860615   0.000195481887 -0.000102461877   0.000195481886 -0.000102461877      0.395727224      0.89527215
12.662996            0.397249139     0.894654211   0.000195721723 -0.000102714052   0.000195721723 -0.000102714052      0.396157845     0.895064991
12.663024            0.397677133     0.894447436   0.000195961842  -0.00010296685   0.000195961842 -0.000102966849      0.396588689     0.894857456
12.663052            0.398105349      0.89424029   0.000196202244 -0.000103220271   0.000196202244 -0.000103220271      0.397019756     0.894649547
12.66308             0.398533785     0.894032772   0.000196442929 -0.000103474319   0.000196442928 -0.000103474318      0.397451048     0.894441261
12.663108            0.398962443     0.893824881   0.000196683897 -0.000103728994   0.000196683896 -0.000103728993      0.397882562     0.894232599
12.663136            0.399391322     0.893616617   0.000196925148 -0.000103984297   0.000196925148 -0.000103984297      0.398314301     0.894023559
12.663164            0.399820422     0.893407979   0.000197166682 -0.000104240232   0.000197166682 -0.000104240231      0.398746263     0.893814141
12.663192            0.400249744     0.893198966     0.0001974085 -0.000104496798     0.0001974085 -0.000104496798      0.399178449     0.893604345
12.66322             0.400679287     0.892989578   0.000197650602 -0.000104753999   0.000197650601 -0.000104753998      0.399610858     0.893394169
12.663248            0.401109051     0.892779814   0.000197892987 -0.000105011835   0.000197892986 -0.000105011834      0.400043492     0.893183614
12.663276            0.401539036     0.892569673   0.000198135656 -0.000105270308   0.000198135655 -0.000105270308      0.400476349     0.892972678
12.663304            0.401969244     0.892359155   0.000198378608  -0.00010552942   0.000198378608 -0.000105529419      0.400909431     0.892761361
12.663332            0.402399672      0.89214826   0.000198621845 -0.000105789172   0.000198621845 -0.000105789172      0.401342736     0.892549662
12.66336             0.402830323     0.891936985   0.000198865366 -0.000106049567   0.000198865365 -0.000106049566      0.401776265     0.892337581
12.663388            0.403261195     0.891725332   0.000199109171 -0.000106310605   0.000199109171 -0.000106310605      0.402210019     0.892125116
12.663416            0.403692288     0.891513299    0.00019935326 -0.000106572289    0.00019935326 -0.000106572288      0.402643996     0.891912268
12.663444            0.404123604     0.891300886   0.000199597634  -0.00010683462   0.000199597634 -0.000106834619      0.403078198     0.891699035
12.663472            0.404555141     0.891088091   0.000199842293 -0.000107097599   0.000199842292 -0.000107097599      0.403512624     0.891485417
12.6635                0.4049869     0.890874915   0.000200087236  -0.00010736123   0.000200087235 -0.000107361229      0.403947274     0.891271413
12.663528             0.40541888     0.890661357   0.000200332464 -0.000107625512   0.000200332463 -0.000107625512      0.404382148     0.891057023
12.663556            0.405851083     0.890447415   0.000200577976 -0.000107890448   0.000200577976 -0.000107890448      0.404817247     0.890842245
12.663584            0.406283508      0.89023309   0.000200823774  -0.00010815604   0.000200823774 -0.000108156039       0.40525257      0.89062708
12.663612            0.406716154     0.890018381   0.000201069857 -0.000108422289   0.000201069856 -0.000108422288      0.405688117     0.890411527
12.66364             0.407149023     0.889803286   0.000201316225 -0.000108689197   0.000201316224 -0.000108689196      0.406123889     0.890195584
12.663668            0.407582114     0.889587806   0.000201562878 -0.000108956765   0.000201562877 -0.000108956765      0.406559886     0.889979252
12.663696            0.408015427      0.88937194   0.000201809816 -0.000109224996   0.000201809816 -0.000109224996      0.406996107     0.889762529
12.663724            0.408448962     0.889155687    0.00020205704 -0.000109493891    0.00020205704 -0.000109493891      0.407432553     0.889545416
12.663752            0.408882719     0.888939046    0.00020230455 -0.000109763452   0.000202304549 -0.000109763451      0.407869223      0.88932791
12.66378             0.409316698     0.888722017   0.000202552345  -0.00011003368   0.000202552345  -0.00011003368      0.408306118     0.889110012
12.663808              0.4097509     0.888504599   0.000202800426 -0.000110304578   0.000202800425 -0.000110304577      0.408743237     0.888891721
12.663836            0.410185324     0.888286791   0.000203048793 -0.000110576146   0.000203048792 -0.000110576146      0.409180582     0.888673036
12.663864             0.41061997     0.888068593   0.000203297445 -0.000110848387   0.000203297445 -0.000110848387      0.409618151     0.888453957
12.663892            0.411054839     0.887850005   0.000203546384 -0.000111121303   0.000203546383 -0.000111121303      0.410055945     0.888234483
12.66392              0.41148993     0.887631024   0.000203795608 -0.000111394895   0.000203795608 -0.000111394895      0.410493964     0.888014613
12.663948            0.411925244     0.887411652   0.000204045119 -0.000111669165   0.000204045119 -0.000111669165      0.410932207     0.887794346
12.663976             0.41236078     0.887191886   0.000204294916 -0.000111944115   0.000204294916 -0.000111944114      0.411370676     0.887573682
12.664004            0.412796538     0.886971727   0.000204544999 -0.000112219746   0.000204544999 -0.000112219746      0.411809369     0.887352621
12.664032             0.41323252     0.886751174   0.000204795369  -0.00011249606   0.000204795368  -0.00011249606      0.412248288     0.887131161
12.66406             0.413668723     0.886530226   0.000205046025  -0.00011277306   0.000205046025 -0.000112773059      0.412687432     0.886909301
12.664088             0.41410515     0.886308882   0.000205296968 -0.000113050746   0.000205296967 -0.000113050746        0.4131268     0.886687042
12.664116            0.414541799     0.886087142   0.000205548197 -0.000113329121   0.000205548196  -0.00011332912      0.413566394     0.886464382
12.664144            0.414978671     0.885865005   0.000205799713 -0.000113608186   0.000205799712 -0.000113608186      0.414006213     0.886241321
12.664172            0.415415765      0.88564247   0.000206051515 -0.000113887943   0.000206051515 -0.000113887943      0.414446257     0.886017858
12.6642              0.415853083     0.885419537   0.000206303605 -0.000114168395   0.000206303604 -0.000114168394      0.414886526     0.885793993
12.664228            0.416290623     0.885196205   0.000206555981 -0.000114449542   0.000206555981 -0.000114449542      0.415327021     0.885569724
12.664256            0.416728386     0.884972474   0.000206808644 -0.000114731387   0.000206808644 -0.000114731386      0.415767741     0.885345051
12.664284            0.417166372     0.884748342   0.000207061594 -0.000115013931   0.000207061594  -0.00011501393      0.416208686     0.885119973
12.664312             0.41760458     0.884523809   0.000207314832 -0.000115297176   0.000207314831 -0.000115297175      0.416649856      0.88489449
12.66434             0.418043012     0.884298874   0.000207568356 -0.000115581124   0.000207568356 -0.000115581124      0.417091252     0.884668601
12.664368            0.418481666     0.884073537   0.000207822168 -0.000115865777   0.000207822167 -0.000115865777      0.417532873     0.884442305
12.664396            0.418920544     0.883847796   0.000208076266 -0.000116151137   0.000208076266 -0.000116151136      0.417974719     0.884215602
12.664424            0.419359645     0.883621652   0.000208330652 -0.000116437205   0.000208330652 -0.000116437205      0.418416791      0.88398849
12.664452            0.419798968     0.883395104   0.000208585326 -0.000116723984   0.000208585325 -0.000116723983      0.418859088      0.88376097
12.66448             0.420238515      0.88316815   0.000208840286 -0.000117011474   0.000208840286 -0.000117011474      0.419301611      0.88353304
12.664508            0.420678285      0.88294079   0.000209095534 -0.000117299679   0.000209095534 -0.000117299679       0.41974436     0.883304699
12.664536            0.421118278     0.882713024    0.00020935107   -0.0001175886    0.00020935107 -0.000117588599      0.420187333     0.883075948
12.664564            0.421558494      0.88248485   0.000209606893 -0.000117878238   0.000209606893 -0.000117878238      0.420630533     0.882846785
12.664592            0.421998933     0.882256269   0.000209863004 -0.000118168596   0.000209863003 -0.000118168596      0.421073958     0.882617209
12.66462             0.422439595     0.882027279   0.000210119402 -0.000118459676   0.000210119401 -0.000118459675      0.421517609      0.88238722
12.664648            0.422880481     0.881797879   0.000210376088 -0.000118751478   0.000210376087 -0.000118751478      0.421961485     0.882156818
12.664676             0.42332159      0.88156807   0.000210633061 -0.000119044006   0.000210633061 -0.000119044006      0.422405587     0.881926001
12.664704            0.423762922      0.88133785   0.000210890323 -0.000119337262   0.000210890322 -0.000119337261      0.422849914     0.881694768
12.664732            0.424204477     0.881107218   0.000211147872 -0.000119631246   0.000211147871 -0.000119631245      0.423294468      0.88146312
12.66476             0.424646256     0.880876174   0.000211405708 -0.000119925961   0.000211405708  -0.00011992596      0.423739247     0.881231055
12.664788            0.425088258     0.880644717   0.000211663833 -0.000120221409   0.000211663832 -0.000120221408      0.424184251     0.880998573
12.664816            0.425530483     0.880412847   0.000211922245 -0.000120517591   0.000211922245 -0.000120517591      0.424629482     0.880765672
12.664844            0.425972932     0.880180562   0.000212180945  -0.00012081451   0.000212180945  -0.00012081451      0.425074938     0.880532352
12.664872            0.426415604     0.879947862   0.000212439933 -0.000121112168   0.000212439933 -0.000121112168       0.42552062     0.880298613
12.6649              0.426858499     0.879714747   0.000212699209 -0.000121410566   0.000212699209 -0.000121410566      0.425966528     0.880064454
12.664928            0.427301618     0.879481215   0.000212958773 -0.000121709706   0.000212958773 -0.000121709706      0.426412662     0.879829874
12.664956            0.427744961     0.879247266   0.000213218625 -0.000122009591   0.000213218625 -0.000122009591      0.426859021     0.879594872
12.664984            0.428188527     0.879012899   0.000213478765 -0.000122310222   0.000213478764 -0.000122310222      0.427305607     0.879359447
12.665012            0.428632316     0.878778113   0.000213739192 -0.000122611601   0.000213739192 -0.000122611601      0.427752418     0.879123599
12.66504             0.429076329     0.878542909   0.000213999908  -0.00012291373   0.000213999908  -0.00012291373      0.428199455     0.878887327
12.665068            0.429520565     0.878307284   0.000214260912 -0.000123216611   0.000214260911 -0.000123216611      0.428646718     0.878650631
12.665096            0.429965025     0.878071238   0.000214522203 -0.000123520247   0.000214522203 -0.000123520246      0.429094207     0.878413509
12.665124            0.430409708     0.877834771   0.000214783783 -0.000123824638   0.000214783782 -0.000123824638      0.429541922     0.878175961
12.665152            0.430854615     0.877597882    0.00021504565 -0.000124129787    0.00021504565 -0.000124129787      0.429989863     0.877937986
12.66518             0.431299746      0.87736057   0.000215307806 -0.000124435696   0.000215307806 -0.000124435696       0.43043803     0.877699584
12.665208              0.4317451     0.877122834    0.00021557025 -0.000124742367   0.000215570249 -0.000124742367      0.430886423     0.877460753
12.665236            0.432190677     0.876884674   0.000215832981 -0.000125049802   0.000215832981 -0.000125049801      0.431335041     0.877221493
12.665264            0.432636478     0.876646088   0.000216096001 -0.000125358002      0.000216096 -0.000125358002      0.431783886     0.876981804
12.665292            0.433082503     0.876407077   0.000216359308 -0.000125666971   0.000216359308  -0.00012566697      0.432232957     0.876741683
12.66532             0.433528752     0.876167639   0.000216622904 -0.000125976709   0.000216622903 -0.000125976709      0.432682254     0.876501132
12.665348            0.433975224     0.875927774   0.000216886787 -0.000126287219   0.000216886786 -0.000126287219      0.433131776     0.876260148
12.665376             0.43442192     0.875687481   0.000217150958 -0.000126598503   0.000217150958 -0.000126598503      0.433581525     0.876018732
12.665404            0.434868839      0.87544676   0.000217415418 -0.000126910563   0.000217415417 -0.000126910562        0.4340315     0.875776882