! TOUCHSTONE file generated by CST MICROWAVE STUDIO
! Date and time: Wed Jul 31 14:17:27 2024
! Project name: WaveGuide_BPF-Ver4.1_U-shape_Ku_T3_C4_CWA_2.cst
! Parameters = {cavity_h=16; cavity_l0=10; cavity_l1=15.1797; cavity_l2=16.8573; cavity_l3=17.068; cavity_l4=17.2508; cavity_l5=17.1369; cavity_l6=17.639; cavity_r=2.5; cavity_screw_l=0.5; cavity_screw_r=1.5; cavity_w=8; iris_h00=0; iris_h01=8.8382; iris_h112=0; iris_h12=5.588; iris_h211=3.6684; iris_h23=5.2079; iris_h310=3.975; iris_h34=5.0741; iris_h45=4.9404; iris_h49=4.6154; iris_h56=4.7989; iris_h58=4.4415; iris_h67=6.5765; iris_rx=0.1; iris_screw_l=0.5; iris_screw_r=1.5; iris_shift00=0; iris_shift112=0; iris_shift211=3.5; iris_shift310=0; iris_shift49=0; iris_shift58=3.5; iris_shift67=3.5; iris_tx=4.5; iris_tz=4.5; iris_w00=0; iris_w112=0; iris_w211=4; iris_w310=3.975; iris_w49=4.6154; iris_w58=4; iris_w67=4; mesh_cavity=5; mesh_iris=7; mesh_screw=7; order=12; reset_all=0; sigma=4.8e+07}
! Header version: 2018
! Port assignment regex: !\s*Touchstone port\s*([0-9]+)\s*=\s*(CST MWS port|CST DS port)\s*([0-9]+|Zmin|Zmax)\s*\(\"(.*)\"\)(\s*mode\s*([0-9]+))?.*
! Touchstone port assignment:
! Touchstone port 1 = CST MWS port 1 ("")
! Touchstone port 2 = CST MWS port 2 ("")
# GHz S RI R 50
12.66                0.312541455      0.93058623   0.000245882219 -0.000103478011   0.000245882219 -0.000103478011      0.318952891     0.928435839
12.660028            0.312925562     0.930443773   0.000246235225 -0.000103755445   0.000246235225 -0.000103755445      0.319336337     0.928290648
12.660056            0.313309829     0.930301064   0.000246588809 -0.000104033633   0.000246588809 -0.000104033633      0.319720022     0.928145177
12.660084            0.313694283     0.930158093   0.000246942972 -0.000104312578   0.000246942972 -0.000104312578      0.320103938     0.927999428
12.660112            0.314078951     0.930014851   0.000247297712 -0.000104592285   0.000247297711 -0.000104592285      0.320488077     0.927853402
12.66014             0.314463858      0.92987133   0.000247653028 -0.000104872758   0.000247653028 -0.000104872758      0.320872431     0.927707102
12.660168            0.314849005     0.929727528   0.000248008921    -0.000105154   0.000248008921    -0.000105154         0.321257     0.927560527
12.660196            0.315234374     0.929583452   0.000248365394 -0.000105436011   0.000248365394 -0.000105436011       0.32164179     0.927413675
12.660224            0.315619967     0.929439099   0.000248722447 -0.000105718794   0.000248722447 -0.000105718794        0.3220268     0.927266547
12.660252            0.316005782     0.929294471   0.000249080081  -0.00010600235   0.000249080081  -0.00010600235      0.322412031      0.92711914
12.66028              0.31639182     0.929149566   0.000249438298 -0.000106286683   0.000249438298 -0.000106286683      0.322797483     0.926971455
12.660308            0.316778082     0.929004384   0.000249797098 -0.000106571794   0.000249797098 -0.000106571794      0.323183156     0.926823491
12.660336            0.317164566     0.928858925   0.000250156483 -0.000106857686   0.000250156483 -0.000106857686      0.323569051     0.926675248
12.660364            0.317551275     0.928713187   0.000250516452 -0.000107144361   0.000250516452 -0.000107144361      0.323955167     0.926526724
12.660392            0.317938207     0.928567171   0.000250877008 -0.000107431822   0.000250877008 -0.000107431822      0.324341505     0.926377921
12.66042             0.318325363     0.928420876   0.000251238151 -0.000107720071   0.000251238151 -0.000107720071      0.324728065     0.926228837
12.660448            0.318712742     0.928274302   0.000251599882 -0.000108009109   0.000251599882 -0.000108009109      0.325114846     0.926079471
12.660476            0.319100346     0.928127447   0.000251962202 -0.000108298941   0.000251962202 -0.000108298941       0.32550185     0.925929824
12.660504            0.319488175     0.927980312   0.000252325112 -0.000108589567   0.000252325112 -0.000108589567      0.325889076     0.925779894
12.660532            0.319876227     0.927832896   0.000252688613 -0.000108880991   0.000252688613 -0.000108880991      0.326276525     0.925629681
12.66056             0.320264505     0.927685199   0.000253052706 -0.000109173214   0.000253052706 -0.000109173214      0.326664196     0.925479185
12.660588            0.320653007     0.927537219   0.000253417392 -0.000109466239   0.000253417392 -0.000109466239       0.32705209     0.925328405
12.660616            0.321041734     0.927388957   0.000253782672 -0.000109760069   0.000253782672 -0.000109760069      0.327440207     0.925177341
12.660644            0.321430686     0.927240412   0.000254148547 -0.000110054705   0.000254148547 -0.000110054706      0.327828547     0.925025992
12.660672            0.321819864     0.927091583   0.000254515018 -0.000110350151   0.000254515018 -0.000110350151       0.32821711     0.924874357
12.6607              0.322209267      0.92694247   0.000254882085 -0.000110646409   0.000254882085 -0.000110646409      0.328605896     0.924722437
12.660728            0.322598895     0.926793073   0.000255249751 -0.000110943481    0.00025524975 -0.000110943481      0.328994906      0.92457023
12.660756            0.322988749     0.926643391   0.000255618015 -0.000111241369   0.000255618015 -0.000111241369       0.32938414     0.924417736
12.660784            0.323378829     0.926493423   0.000255986879 -0.000111540076   0.000255986879 -0.000111540076      0.329773598     0.924264955
12.660812            0.323769136     0.926343168   0.000256356343 -0.000111839605   0.000256356343 -0.000111839605      0.330163279     0.924111886
12.66084             0.324159668     0.926192628    0.00025672641 -0.000112139957    0.00025672641 -0.000112139957      0.330553185     0.923958528
12.660868            0.324550427       0.9260418   0.000257097079 -0.000112441136   0.000257097079 -0.000112441136      0.330943315     0.923804882
12.660896            0.324941412     0.925890684   0.000257468352 -0.000112743144   0.000257468352 -0.000112743144      0.331333669     0.923650946
12.660924            0.325332624     0.925739281   0.000257840229 -0.000113045983   0.000257840229 -0.000113045983      0.331724248      0.92349672
12.660952            0.325724063     0.925587588   0.000258212713 -0.000113349656   0.000258212713 -0.000113349656      0.332115052     0.923342203
12.66098             0.326115729     0.925435607   0.000258585803 -0.000113654165   0.000258585802 -0.000113654165       0.33250608     0.923187396
12.661008            0.326507622     0.925283335     0.0002589595 -0.000113959513     0.0002589595 -0.000113959513      0.332897334     0.923032296
12.661036            0.326899742     0.925130774   0.000259333806 -0.000114265703   0.000259333806 -0.000114265703      0.333288813     0.922876905
12.661064             0.32729209     0.924977922   0.000259708722 -0.000114572736   0.000259708722 -0.000114572736      0.333680517     0.922721221
12.661092            0.327684665     0.924824778   0.000260084249 -0.000114880616   0.000260084249 -0.000114880616      0.334072447     0.922565244
12.66112             0.328077468     0.924671342   0.000260460387 -0.000115189344   0.000260460387 -0.000115189344      0.334464603     0.922408973
12.661148            0.328470499     0.924517615   0.000260837137 -0.000115498925   0.000260837137 -0.000115498925      0.334856984     0.922252408
12.661176            0.328863759     0.924363594   0.000261214502 -0.000115809359   0.000261214502 -0.000115809359      0.335249591     0.922095549
12.661204            0.329257246      0.92420928   0.000261592481  -0.00011612065   0.000261592481  -0.00011612065      0.335642425     0.921938394
12.661232            0.329650962     0.924054672   0.000261971075   -0.0001164328   0.000261971075   -0.0001164328      0.336035484     0.921780943
12.66126             0.330044907     0.923899769   0.000262350286 -0.000116745811   0.000262350286 -0.000116745811      0.336428771     0.921623196
12.661288             0.33043908     0.923744572   0.000262730115 -0.000117059688   0.000262730115 -0.000117059688      0.336822283     0.921465152
12.661316            0.330833482     0.923589079   0.000263110562 -0.000117374431   0.000263110562 -0.000117374431      0.337216023      0.92130681
12.661344            0.331228114     0.923433289   0.000263491629 -0.000117690043   0.000263491629 -0.000117690043      0.337609989     0.921148171
12.661372            0.331622974     0.923277204   0.000263873317 -0.000118006528   0.000263873317 -0.000118006528      0.338004183     0.920989233
12.6614              0.332018064     0.923120821   0.000264255626 -0.000118323888   0.000264255626 -0.000118323888      0.338398604     0.920829997
12.661428            0.332413384      0.92296414   0.000264638557 -0.000118642125   0.000264638557 -0.000118642125      0.338793252      0.92067046
12.661456            0.332808933     0.922807161   0.000265022113 -0.000118961243   0.000265022113 -0.000118961243      0.339188127     0.920510624
12.661484            0.333204712     0.922649883   0.000265406293 -0.000119281243   0.000265406293 -0.000119281243      0.339583231     0.920350487
12.661512            0.333600721     0.922492307   0.000265791098 -0.000119602128   0.000265791098 -0.000119602128      0.339978562     0.920190048
12.66154              0.33399696      0.92233443    0.00026617653 -0.000119923902    0.00026617653 -0.000119923902      0.340374121     0.920029309
12.661568             0.33439343     0.922176253    0.00026656259 -0.000120246566    0.00026656259 -0.000120246566      0.340769908     0.919868266
12.661596             0.33479013     0.922017774   0.000266949279 -0.000120570124   0.000266949278 -0.000120570124      0.341165924     0.919706921
12.661624            0.335187061     0.921858995   0.000267336597 -0.000120894577   0.000267336597 -0.000120894577      0.341562167     0.919545273
12.661652            0.335584222     0.921699913   0.000267724545  -0.00012121993   0.000267724545  -0.00012121993       0.34195864     0.919383321
12.66168             0.335981614     0.921540529   0.000268113126 -0.000121546184   0.000268113126 -0.000121546184      0.342355341     0.919221064
12.661708            0.336379238     0.921380841   0.000268502339 -0.000121873343   0.000268502339 -0.000121873343      0.342752271     0.919058502
12.661736            0.336777093      0.92122085   0.000268892186 -0.000122201409   0.000268892186 -0.000122201409      0.343149431     0.918895635
12.661764            0.337175179     0.921060555   0.000269282667 -0.000122530384   0.000269282667 -0.000122530384      0.343546819     0.918732462
12.661792            0.337573497     0.920899955   0.000269673785 -0.000122860272   0.000269673785 -0.000122860272      0.343944437     0.918568981
12.66182             0.337972047     0.920739049   0.000270065539 -0.000123191075   0.000270065539 -0.000123191075      0.344342284     0.918405194
12.661848            0.338370828     0.920577838   0.000270457931 -0.000123522796   0.000270457931 -0.000123522796      0.344740361     0.918241099
12.661876            0.338769842      0.92041632   0.000270850961 -0.000123855438   0.000270850961 -0.000123855438      0.345138668     0.918076696
12.661904            0.339169088     0.920254495   0.000271244632 -0.000124189004   0.000271244632 -0.000124189004      0.345537204     0.917911983
12.661932            0.339568566     0.920092362   0.000271638943 -0.000124523496   0.000271638943 -0.000124523496      0.345935971     0.917746961
12.66196             0.339968277     0.919929922   0.000272033896 -0.000124858917   0.000272033896 -0.000124858917      0.346334968      0.91758163
12.661988             0.34036822     0.919767172   0.000272429492  -0.00012519527   0.000272429492  -0.00012519527      0.346734196     0.917415987
12.662016            0.340768397     0.919604113   0.000272825732 -0.000125532558   0.000272825732 -0.000125532558      0.347133654     0.917250034
12.662044            0.341168806     0.919440745   0.000273222617 -0.000125870784   0.000273222617 -0.000125870784      0.347533343     0.917083768
12.662072            0.341569449     0.919277066   0.000273620148 -0.000126209951   0.000273620148 -0.000126209951      0.347933262     0.916917191
12.6621              0.341970324     0.919113076   0.000274018326  -0.00012655006   0.000274018326  -0.00012655006      0.348333413       0.9167503
12.662128            0.342371434     0.918948775   0.000274417152 -0.000126891116   0.000274417152 -0.000126891116      0.348733795     0.916583097
12.662156            0.342772777     0.918784161   0.000274816627 -0.000127233121   0.000274816626 -0.000127233121      0.349134408     0.916415579
12.662184            0.343174354     0.918619235   0.000275216751 -0.000127576078   0.000275216751 -0.000127576078      0.349535253     0.916247746
12.662212            0.343576164     0.918453995   0.000275617528  -0.00012791999   0.000275617527  -0.00012791999      0.349936329     0.916079599
12.66224             0.343978209     0.918288442   0.000276018956  -0.00012826486   0.000276018956  -0.00012826486      0.350337637     0.915911136
12.662268            0.344380488     0.918122574   0.000276421037  -0.00012861069   0.000276421037  -0.00012861069      0.350739177     0.915742356
12.662296            0.344783002     0.917956391   0.000276823773 -0.000128957484   0.000276823772 -0.000128957484       0.35114095      0.91557326
12.662324             0.34518575     0.917789893   0.000277227163 -0.000129305245   0.000277227163 -0.000129305245      0.351542954     0.915403846
12.662352            0.345588733     0.917623079    0.00027763121 -0.000129653975    0.00027763121 -0.000129653975      0.351945191     0.915234114
12.66238             0.345991951     0.917455947   0.000278035915 -0.000130003677   0.000278035915 -0.000130003677       0.35234766     0.915064063
12.662408            0.346395404     0.917288499   0.000278441277 -0.000130354355   0.000278441277 -0.000130354355      0.352750362     0.914893694
12.662436            0.346799092     0.917120732   0.000278847299 -0.000130706011   0.000278847299 -0.000130706011      0.353153297     0.914723004
12.662464            0.347203015     0.916952648   0.000279253982 -0.000131058648   0.000279253982 -0.000131058648      0.353556465     0.914551995
12.662492            0.347607174     0.916784244   0.000279661326  -0.00013141227   0.000279661326  -0.00013141227      0.353959866     0.914380664
12.66252             0.348011569      0.91661552   0.000280069332 -0.000131766879   0.000280069332 -0.000131766879        0.3543635     0.914209012
12.662548            0.348416199     0.916446476   0.000280478002 -0.000132122479   0.000280478002 -0.000132122479      0.354767368     0.914037037
12.662576            0.348821066     0.916277112   0.000280887337 -0.000132479072   0.000280887336 -0.000132479072      0.355171469      0.91386474
12.662604            0.349226168     0.916107426   0.000281297337 -0.000132836661   0.000281297337 -0.000132836661      0.355575804      0.91369212
12.662632            0.349631507     0.915937418   0.000281708003  -0.00013319525   0.000281708003  -0.00013319525      0.355980373     0.913519175
12.66266             0.350037082     0.915767087   0.000282119338 -0.000133554841   0.000282119338 -0.000133554841      0.356385177     0.913345907
12.662688            0.350442894     0.915596433   0.000282531341 -0.000133915437   0.000282531341 -0.000133915437      0.356790214     0.913172313
12.662716            0.350848943     0.915425455   0.000282944014 -0.000134277042   0.000282944014 -0.000134277042      0.357195485     0.912998393
12.662744            0.351255229     0.915254153   0.000283357358 -0.000134639659   0.000283357358 -0.000134639659      0.357600992     0.912824148
12.662772            0.351661752     0.915082526   0.000283771373 -0.000135003291   0.000283771373 -0.000135003291      0.358006732     0.912649575
12.6628              0.352068512     0.914910574   0.000284186062  -0.00013536794   0.000284186062  -0.00013536794      0.358412708     0.912474675
12.662828            0.352475509     0.914738295   0.000284601425 -0.000135733611   0.000284601425 -0.000135733611      0.358818918     0.912299447
12.662856            0.352882744      0.91456569   0.000285017462 -0.000136100305   0.000285017462 -0.000136100305      0.359225364      0.91212389
12.662884            0.353290217     0.914392757   0.000285434176 -0.000136468027   0.000285434176 -0.000136468027      0.359632045     0.911948004
12.662912            0.353697927     0.914219496   0.000285851567 -0.000136836779   0.000285851567 -0.000136836779      0.360038961     0.911771787
12.66294             0.354105876     0.914045906   0.000286269636 -0.000137206565   0.000286269636 -0.000137206565      0.360446113     0.911595241
12.662968            0.354514063     0.913871987   0.000286688384 -0.000137577387   0.000286688384 -0.000137577387      0.360853501     0.911418363
12.662996            0.354922488     0.913697739   0.000287107812 -0.000137949249   0.000287107812 -0.000137949249      0.361261124     0.911241154
12.663024            0.355331151      0.91352316   0.000287527922 -0.000138322155   0.000287527922 -0.000138322155      0.361668983     0.911063612
12.663052            0.355740053      0.91334825   0.000287948715 -0.000138696106   0.000287948714 -0.000138696106      0.362077079     0.910885738
12.66308             0.356149194     0.913173008    0.00028837019 -0.000139071107    0.00028837019 -0.000139071107      0.362485411     0.910707529
12.663108            0.356558574     0.912997434    0.00028879235  -0.00013944716    0.00028879235  -0.00013944716      0.362893979     0.910528987
12.663136            0.356968193     0.912821527   0.000289215196  -0.00013982427   0.000289215196  -0.00013982427      0.363302784      0.91035011
12.663164            0.357378051     0.912645287   0.000289638728 -0.000140202438   0.000289638728 -0.000140202438      0.363711825     0.910170897
12.663192            0.357788149     0.912468712   0.000290062948 -0.000140581669   0.000290062948 -0.000140581669      0.364121104     0.909991349
12.66322             0.358198486     0.912291803   0.000290487857 -0.000140961966   0.000290487857 -0.000140961966      0.364530619     0.909811464
12.663248            0.358609063     0.912114558   0.000290913455 -0.000141343331   0.000290913455 -0.000141343331      0.364940372     0.909631241
12.663276             0.35901988     0.911936978   0.000291339745 -0.000141725769   0.000291339745 -0.000141725769      0.365350362     0.909450681
12.663304            0.359430937     0.911759061   0.000291766726 -0.000142109282   0.000291766726 -0.000142109282       0.36576059     0.909269782
12.663332            0.359842234     0.911580806     0.0002921944 -0.000142493874     0.0002921944 -0.000142493874      0.366171055     0.909088544
12.66336             0.360253771     0.911402214   0.000292622768 -0.000142879548   0.000292622768 -0.000142879548      0.366581758     0.908906966
12.663388            0.360665549     0.911223283   0.000293051832 -0.000143266307   0.000293051831 -0.000143266307      0.366992699     0.908725048
12.663416            0.361077568     0.911044013   0.000293481591 -0.000143654156   0.000293481591 -0.000143654156      0.367403878     0.908542789
12.663444            0.361489827     0.910864404   0.000293912048 -0.000144043096   0.000293912047 -0.000144043096      0.367815295     0.908360188
12.663472            0.361902327     0.910684454   0.000294343203 -0.000144433132   0.000294343202 -0.000144433132       0.36822695     0.908177245
12.6635              0.362315069     0.910504162   0.000294775057 -0.000144824266   0.000294775057 -0.000144824266      0.368638844     0.907993959
12.663528            0.362728051      0.91032353   0.000295207611 -0.000145216503   0.000295207611 -0.000145216503      0.369050977      0.90781033
12.663556            0.363141275     0.910142555   0.000295640867 -0.000145609845   0.000295640867 -0.000145609845      0.369463348     0.907626356
12.663584            0.363554741     0.909961237   0.000296074826 -0.000146004297   0.000296074826 -0.000146004297      0.369875959     0.907442037
12.663612            0.363968448     0.909779575   0.000296509488 -0.000146399861   0.000296509488 -0.000146399861      0.370288808     0.907257373
12.66364             0.364382397     0.909597569   0.000296944855 -0.000146796541   0.000296944855 -0.000146796541      0.370701897     0.907072363
12.663668            0.364796588     0.909415219   0.000297380928  -0.00014719434   0.000297380928  -0.00014719434      0.371115226     0.906887006
12.663696            0.365211022     0.909232523   0.000297817707 -0.000147593261   0.000297817707 -0.000147593261      0.371528793     0.906701302
12.663724            0.365625697     0.909049481   0.000298255194 -0.000147993309   0.000298255194 -0.000147993309      0.371942601      0.90651525
12.663752            0.366040616     0.908866091   0.000298693391 -0.000148394487    0.00029869339 -0.000148394487      0.372356648     0.906328849
12.66378             0.366455776     0.908682355   0.000299132297 -0.000148796798   0.000299132297 -0.000148796798      0.372770935     0.906142098
12.663808             0.36687118      0.90849827   0.000299571914 -0.000149200246   0.000299571914 -0.000149200246      0.373185463     0.905954998
12.663836            0.367286826     0.908313837   0.000300012243 -0.000149604834   0.000300012243 -0.000149604834       0.37360023     0.905767547
12.663864            0.367702716     0.908129054   0.000300453286 -0.000150010565   0.000300453286 -0.000150010565      0.374015238     0.905579744
12.663892            0.368118849     0.907943922   0.000300895043 -0.000150417444   0.000300895043 -0.000150417444      0.374430487      0.90539159
12.66392             0.368535225     0.907758438   0.000301337515 -0.000150825473   0.000301337515 -0.000150825473      0.374845976     0.905203083
12.663948            0.368951844     0.907572603   0.000301780704 -0.000151234657   0.000301780704 -0.000151234657      0.375261707     0.905014223
12.663976            0.369368708     0.907386417    0.00030222461 -0.000151644999    0.00030222461 -0.000151644999      0.375677678     0.904825009
12.664004            0.369785815     0.907199877   0.000302669235 -0.000152056503   0.000302669235 -0.000152056503       0.37609389      0.90463544
12.664032            0.370203166     0.907012984   0.000303114579 -0.000152469171   0.000303114579 -0.000152469171      0.376510344     0.904445516
12.66406             0.370620762     0.906825737   0.000303560644 -0.000152883008   0.000303560644 -0.000152883008      0.376927039     0.904255236
12.664088            0.371038601     0.906638136   0.000304007431 -0.000153298018   0.000304007431 -0.000153298018      0.377343975       0.9040646
12.664116            0.371456685     0.906450179   0.000304454941 -0.000153714203   0.000304454941 -0.000153714203      0.377761154     0.903873606
12.664144            0.371875014     0.906261866   0.000304903174 -0.000154131568   0.000304903174 -0.000154131568      0.378178574     0.903682255
12.664172            0.372293587     0.906073196   0.000305352133 -0.000154550117   0.000305352133 -0.000154550117      0.378596236     0.903490544
12.6642              0.372712406     0.905884169   0.000305801818 -0.000154969852   0.000305801818 -0.000154969852       0.37901414     0.903298475
12.664228            0.373131469     0.905694784    0.00030625223 -0.000155390778    0.00030625223 -0.000155390778      0.379432287     0.903106046
12.664256            0.373550777     0.905505041    0.00030670337 -0.000155812898    0.00030670337 -0.000155812898      0.379850676     0.902913256
12.664284            0.373970331     0.905314938   0.000307155239 -0.000156236216   0.000307155239 -0.000156236216      0.380269308     0.902720105
12.664312            0.374390131     0.905124475   0.000307607839 -0.000156660736   0.000307607839 -0.000156660736      0.380688182     0.902526591
12.66434             0.374810176     0.904933651   0.000308061171 -0.000157086461   0.000308061171 -0.000157086462      0.381107299     0.902332716
12.664368            0.375230466     0.904742466   0.000308515235 -0.000157513396   0.000308515234 -0.000157513396       0.38152666     0.902138477
12.664396            0.375651003     0.904550919   0.000308970032 -0.000157941544   0.000308970032 -0.000157941544      0.381946263     0.901943873
12.664424            0.376071786     0.904359009   0.000309425564 -0.000158370908   0.000309425564 -0.000158370908       0.38236611     0.901748906
12.664452            0.376492815     0.904166735   0.000309881832 -0.000158801493   0.000309881832 -0.000158801493        0.3827862     0.901553573
12.66448              0.37691409     0.903974098   0.000310338837 -0.000159233302   0.000310338837 -0.000159233302      0.383206533     0.901357873
12.664508            0.377335612     0.903781095    0.00031079658 -0.000159666339    0.00031079658 -0.000159666339      0.383627111     0.901161808
12.664536            0.377757381     0.903587727   0.000311255061 -0.000160100608   0.000311255061 -0.000160100608      0.384047932     0.900965374
12.664564            0.378179396     0.903393993   0.000311714283 -0.000160536113   0.000311714283 -0.000160536113      0.384468997     0.900768573
12.664592            0.378601659     0.903199892   0.000312174246 -0.000160972858   0.000312174246 -0.000160972858      0.384890307     0.900571403
12.66462             0.379024168     0.903005423   0.000312634951 -0.000161410846   0.000312634951 -0.000161410846       0.38531186     0.900373863
12.664648            0.379446925     0.902810586     0.0003130964 -0.000161850081     0.0003130964 -0.000161850081      0.385733659     0.900175953
12.664676            0.379869929     0.902615381   0.000313558593 -0.000162290568   0.000313558593 -0.000162290568      0.386155701     0.899977672
12.664704            0.380293181     0.902419805   0.000314021531  -0.00016273231   0.000314021531  -0.00016273231      0.386577989      0.89977902
12.664732             0.38071668     0.902223859   0.000314485216  -0.00016317531   0.000314485216  -0.00016317531      0.387000521     0.899579995
12.66476             0.381140428     0.902027542   0.000314949649 -0.000163619574   0.000314949649 -0.000163619574      0.387423298     0.899380597
12.664788            0.381564423     0.901830853    0.00031541483 -0.000164065105    0.00031541483 -0.000164065105       0.38784632     0.899180826
12.664816            0.381988667     0.901633792   0.000315880761 -0.000164511906   0.000315880761 -0.000164511906      0.388269588      0.89898068
12.664844            0.382413158     0.901436357   0.000316347443 -0.000164959983   0.000316347443 -0.000164959983      0.388693101     0.898780159
12.664872            0.382837899     0.901238549   0.000316814877 -0.000165409338   0.000316814877 -0.000165409338      0.389116859     0.898579263
12.6649              0.383262887     0.901040366   0.000317283064 -0.000165859976   0.000317283064 -0.000165859976      0.389540863     0.898377989
12.664928            0.383688125     0.900841807   0.000317752005 -0.000166311901   0.000317752005 -0.000166311901      0.389965113     0.898176339
12.664956            0.384113611     0.900642873   0.000318221701 -0.000166765117   0.000318221701 -0.000166765117      0.390389609     0.897974311
12.664984            0.384539347     0.900443562   0.000318692154 -0.000167219628   0.000318692154 -0.000167219628      0.390814351     0.897771904
12.665012            0.384965331     0.900243873   0.000319163364 -0.000167675437   0.000319163364 -0.000167675437       0.39123934     0.897569117
12.66504             0.385391565     0.900043806   0.000319635332  -0.00016813255   0.000319635332  -0.00016813255      0.391664574     0.897365951
12.665068            0.385818049      0.89984336    0.00032010806 -0.000168590969    0.00032010806 -0.000168590969      0.392090056     0.897162403
12.665096            0.386244782     0.899642535   0.000320581548   -0.0001690507   0.000320581548   -0.0001690507      0.392515783     0.896958474
12.665124            0.386671764     0.899441329   0.000321055798 -0.000169511746   0.000321055798 -0.000169511746      0.392941758     0.896754163
12.665152            0.387098997     0.899239742   0.000321530811 -0.000169974112   0.000321530811 -0.000169974112      0.393367979     0.896549469
12.66518              0.38752648     0.899037774   0.000322006588 -0.000170437801   0.000322006588 -0.000170437801      0.393794448     0.896344391
12.665208            0.387954212     0.898835423   0.000322483129 -0.000170902817   0.000322483129 -0.000170902817      0.394221164     0.896138929
12.665236            0.388382195     0.898632688   0.000322960437 -0.000171369166   0.000322960437 -0.000171369166      0.394648127     0.895933081
12.665264            0.388810429      0.89842957   0.000323438511  -0.00017183685   0.000323438511  -0.00017183685      0.395075337     0.895726848
12.665292            0.389238913     0.898226067   0.000323917354 -0.000172305875   0.000323917354 -0.000172305875      0.395502795     0.895520228
12.66532             0.389667648     0.898022178   0.000324396966 -0.000172776244   0.000324396966 -0.000172776244      0.395930501     0.895313221
12.665348            0.390096634     0.897817903   0.000324877348 -0.000173247962   0.000324877348 -0.000173247962      0.396358455     0.895105825
12.665376            0.390525871     0.897613241   0.000325358502 -0.000173721032   0.000325358502 -0.000173721032      0.396786657     0.894898041
12.665404            0.390955359     0.897408192   0.000325840428  -0.00017419546   0.000325840428  -0.00017419546      0.397215107     0.894689867