! TOUCHSTONE file generated by CST MICROWAVE STUDIO
! Date and time: Wed Jul 31 14:48:42 2024
! Project name: WaveGuide_BPF-Ver4.1_U-shape_Ku_T3_C4_CWA_2.cst
! Parameters = {cavity_h=16; cavity_l0=10; cavity_l1=15.2235; cavity_l2=16.851; cavity_l3=17.0829; cavity_l4=17.262; cavity_l5=17.1251; cavity_l6=17.6036; cavity_r=2.5; cavity_screw_l=0.5; cavity_screw_r=1.5; cavity_w=8; iris_h00=0; iris_h01=8.8042; iris_h112=0; iris_h12=5.6123; iris_h211=3.6573; iris_h23=5.2043; iris_h310=3.9789; iris_h34=5.0732; iris_h45=4.9395; iris_h49=4.6281; iris_h56=4.8116; iris_h58=4.4336; iris_h67=6.577; iris_rx=0.1; iris_screw_l=0.5; iris_screw_r=1.5; iris_shift00=0; iris_shift112=0; iris_shift211=3.5; iris_shift310=0; iris_shift49=0; iris_shift58=3.5; iris_shift67=3.5; iris_tx=4.5; iris_tz=4.5; iris_w00=0; iris_w112=0; iris_w211=4; iris_w310=3.9789; iris_w49=4.6281; iris_w58=4; iris_w67=4; mesh_cavity=5; mesh_iris=7; mesh_screw=7; order=12; reset_all=0; sigma=4.8e+07}
! Header version: 2018
! Port assignment regex: !\s*Touchstone port\s*([0-9]+)\s*=\s*(CST MWS port|CST DS port)\s*([0-9]+|Zmin|Zmax)\s*\(\"(.*)\"\)(\s*mode\s*([0-9]+))?.*
! Touchstone port assignment:
! Touchstone port 1 = CST MWS port 1 ("")
! Touchstone port 2 = CST MWS port 2 ("")
# GHz S RI R 50
12.66                0.378226422     0.902077414   0.000299805882 -0.000154321307   0.000299805882 -0.000154321307      0.385068055     0.899186145
12.660028            0.378672826     0.901871333      0.000300235 -0.000154744412      0.000300235 -0.000154744412      0.385514397     0.898976014
12.660056            0.379119498     0.901664845   0.000300664772   -0.0001551687   0.000300664772   -0.0001551687      0.385960926     0.898765504
12.660084            0.379566435     0.901457949   0.000301095193 -0.000155594179   0.000301095193 -0.000155594179      0.386407674     0.898554601
12.660112            0.380013639     0.901250646    0.00030152626 -0.000156020857    0.00030152626 -0.000156020857      0.386854675     0.898343291
12.66014             0.380461107     0.901042935   0.000301957969 -0.000156448741   0.000301957969 -0.000156448741      0.387301961      0.89813156
12.660168             0.38090884     0.900834815   0.000302390319 -0.000156877836    0.00030239032 -0.000156877836      0.387749532     0.897919406
12.660196             0.38135684     0.900626284   0.000302823316 -0.000157308142   0.000302823316 -0.000157308142      0.388197367     0.897706838
12.660224            0.381805105     0.900417343    0.00030325696 -0.000157739663    0.00030325696 -0.000157739663      0.388645465     0.897493854
12.660252            0.382253636      0.90020799   0.000303691251 -0.000158172402   0.000303691251 -0.000158172402      0.389093827     0.897280456
12.66028             0.382702434     0.899998225    0.00030412619 -0.000158606363    0.00030412619 -0.000158606363      0.389542452      0.89706664
12.660308            0.383151498     0.899788046   0.000304561778 -0.000159041551   0.000304561778 -0.000159041551      0.389991342     0.896852407
12.660336            0.383600828     0.899577454   0.000304998016 -0.000159477968   0.000304998016 -0.000159477968      0.390440496     0.896637757
12.660364            0.384050424     0.899366447   0.000305434904 -0.000159915619   0.000305434904 -0.000159915619      0.390889914     0.896422687
12.660392            0.384500288     0.899155024   0.000305872443 -0.000160354507   0.000305872443 -0.000160354507      0.391339596     0.896207197
12.66042             0.384950418     0.898943184   0.000306310634 -0.000160794636   0.000306310634 -0.000160794636      0.391789543     0.895991287
12.660448            0.385400815     0.898730928   0.000306749477  -0.00016123601   0.000306749477  -0.00016123601      0.392239754     0.895774956
12.660476            0.385851479     0.898518254   0.000307188974 -0.000161678632   0.000307188974 -0.000161678632       0.39269023     0.895558202
12.660504            0.386302411      0.89830516   0.000307629124 -0.000162122507   0.000307629124 -0.000162122507      0.393140971     0.895341025
12.660532            0.386753609     0.898091648   0.000308069929 -0.000162567637   0.000308069929 -0.000162567637      0.393591977     0.895123425
12.66056             0.387205075     0.897877714   0.000308511389 -0.000163014028   0.000308511389 -0.000163014028      0.394043248       0.8949054
12.660588            0.387656809      0.89766336   0.000308953505 -0.000163461683   0.000308953505 -0.000163461683      0.394494784      0.89468695
12.660616             0.38810881     0.897448583   0.000309396278 -0.000163910605   0.000309396278 -0.000163910605      0.394946585     0.894468073
12.660644            0.388561079     0.897233384   0.000309839708 -0.000164360799   0.000309839708 -0.000164360799      0.395398652      0.89424877
12.660672            0.389013616     0.897017761   0.000310283796 -0.000164812268   0.000310283796 -0.000164812268      0.395850984     0.894029038
12.6607              0.389466421     0.896801714   0.000310728543 -0.000165265017   0.000310728543 -0.000165265017      0.396303582     0.893808878
12.660728            0.389919494     0.896585241   0.000311173949 -0.000165719049   0.000311173949 -0.000165719049      0.396756445     0.893588289
12.660756            0.390372836     0.896368342   0.000311620015 -0.000166174368   0.000311620015 -0.000166174368      0.397209574     0.893367269
12.660784            0.390826445     0.896151016   0.000312066742 -0.000166630978   0.000312066742 -0.000166630978      0.397662969     0.893145818
12.660812            0.391280324     0.895933263   0.000312514131 -0.000167088884   0.000312514131 -0.000167088884      0.398116631     0.892923934
12.66084              0.39173447     0.895715081   0.000312962181 -0.000167548088   0.000312962181 -0.000167548088      0.398570558     0.892701619
12.660868            0.392188886     0.895496469   0.000313410895 -0.000168008595   0.000313410895 -0.000168008595      0.399024752     0.892478869
12.660896             0.39264357     0.895277428   0.000313860271 -0.000168470409   0.000313860271 -0.000168470409      0.399479212     0.892255685
12.660924            0.393098524     0.895057955   0.000314310312 -0.000168933534   0.000314310312 -0.000168933535      0.399933938     0.892032066
12.660952            0.393553746      0.89483805   0.000314761018 -0.000169397975   0.000314761018 -0.000169397975      0.400388931      0.89180801
12.66098             0.394009238     0.894617713   0.000315212389 -0.000169863734   0.000315212389 -0.000169863734      0.400844191     0.891583518
12.661008            0.394464999     0.894396942   0.000315664427 -0.000170330816   0.000315664427 -0.000170330816      0.401299717     0.891358587
12.661036            0.394921029     0.894175736   0.000316117131 -0.000170799225   0.000316117131 -0.000170799225      0.401755511     0.891133218
12.661064            0.395377329     0.893954096   0.000316570503 -0.000171268965   0.000316570503 -0.000171268965      0.402211571      0.89090741
12.661092            0.395833899     0.893732019   0.000317024542 -0.000171740041   0.000317024542 -0.000171740041      0.402667899     0.890681161
12.66112             0.396290738     0.893509505   0.000317479251 -0.000172212455   0.000317479251 -0.000172212455      0.403124494     0.890454471
12.661148            0.396747848     0.893286554   0.000317934629 -0.000172686213   0.000317934629 -0.000172686213      0.403581356     0.890227339
12.661176            0.397205227     0.893063164   0.000318390677 -0.000173161319   0.000318390677 -0.000173161319      0.404038486     0.889999763
12.661204            0.397662876     0.892839334   0.000318847396 -0.000173637776   0.000318847396 -0.000173637776      0.404495883     0.889771745
12.661232            0.398120796     0.892615064   0.000319304787 -0.000174115589   0.000319304787 -0.000174115589      0.404953548     0.889543281
12.66126             0.398578986     0.892390353   0.000319762849 -0.000174594762   0.000319762849 -0.000174594762       0.40541148     0.889314372
12.661288            0.399037446       0.8921652   0.000320221585 -0.000175075299   0.000320221585 -0.000175075299      0.405869681     0.889085016
12.661316            0.399496177     0.891939604   0.000320680993 -0.000175557205   0.000320680993 -0.000175557205      0.406328149     0.888855214
12.661344            0.399955179     0.891713564   0.000321141076 -0.000176040483   0.000321141076 -0.000176040483      0.406786886     0.888624963
12.661372            0.400414451      0.89148708   0.000321601833 -0.000176525137   0.000321601833 -0.000176525137       0.40724589     0.888394263
12.6614              0.400873995      0.89126015   0.000322063266 -0.000177011173   0.000322063266 -0.000177011173      0.407705163     0.888163114
12.661428            0.401333809     0.891032774   0.000322525375 -0.000177498593   0.000322525375 -0.000177498593      0.408164705     0.887931514
12.661456            0.401793894      0.89080495    0.00032298816 -0.000177987403    0.00032298816 -0.000177987403      0.408624514     0.887699462
12.661484            0.402254251     0.890576679   0.000323451622 -0.000178477607   0.000323451622 -0.000178477607      0.409084593     0.887466958
12.661512            0.402714879     0.890347958   0.000323915763 -0.000178969208   0.000323915763 -0.000178969208       0.40954494        0.887234
12.66154             0.403175778     0.890118788   0.000324380581 -0.000179462212   0.000324380581 -0.000179462212      0.410005555     0.887000588
12.661568            0.403636949     0.889889167   0.000324846079 -0.000179956623   0.000324846079 -0.000179956623       0.41046644     0.886766721
12.661596            0.404098391     0.889659094   0.000325312257 -0.000180452444   0.000325312257 -0.000180452444      0.410927593     0.886532399
12.661624            0.404560106     0.889428569   0.000325779115 -0.000180949681   0.000325779115 -0.000180949681      0.411389016     0.886297619
12.661652            0.405022092     0.889197591   0.000326246654 -0.000181448337   0.000326246654 -0.000181448337      0.411850708     0.886062381
12.66168              0.40548435     0.888966158   0.000326714874 -0.000181948417   0.000326714874 -0.000181948417      0.412312669     0.885826685
12.661708             0.40594688      0.88873427   0.000327183777 -0.000182449925   0.000327183777 -0.000182449925      0.412774899      0.88559053
12.661736            0.406409682     0.888501926   0.000327653362 -0.000182952867   0.000327653362 -0.000182952867      0.413237399     0.885353914
12.661764            0.406872756     0.888269126   0.000328123631 -0.000183457245   0.000328123631 -0.000183457245      0.413700168     0.885116837
12.661792            0.407336103     0.888035867   0.000328594584 -0.000183963065   0.000328594584 -0.000183963065      0.414163207     0.884879297
12.66182             0.407799723      0.88780215   0.000329066222  -0.00018447033   0.000329066222  -0.00018447033      0.414626516     0.884641295
12.661848            0.408263615     0.887567974   0.000329538545 -0.000184979047   0.000329538545 -0.000184979047      0.415090094     0.884402828
12.661876            0.408727779     0.887333336   0.000330011554 -0.000185489218   0.000330011554 -0.000185489218      0.415553942     0.884163897
12.661904            0.409192216     0.887098238   0.000330485249 -0.000186000848   0.000330485249 -0.000186000848      0.416018061       0.8839245
12.661932            0.409656927     0.886862677   0.000330959631 -0.000186513943   0.000330959631 -0.000186513943      0.416482449     0.883684636
12.66196              0.41012191     0.886626653   0.000331434701 -0.000187028506   0.000331434701 -0.000187028506      0.416947108     0.883444304
12.661988            0.410587166     0.886390165   0.000331910459 -0.000187544541   0.000331910459 -0.000187544542      0.417412037     0.883203504
12.662016            0.411052695     0.886153212   0.000332386906 -0.000188062055   0.000332386906 -0.000188062055      0.417877236     0.882962235
12.662044            0.411518498     0.885915793   0.000332864042  -0.00018858105   0.000332864042  -0.00018858105      0.418342705     0.882720495
12.662072            0.411984574     0.885677908   0.000333341868 -0.000189101532   0.000333341868 -0.000189101532      0.418808446     0.882478284
12.6621              0.412450923     0.885439554   0.000333820385 -0.000189623505   0.000333820385 -0.000189623505      0.419274456       0.8822356
12.662128            0.412917546     0.885200732   0.000334299593 -0.000190146974   0.000334299593 -0.000190146974      0.419740738     0.881992444
12.662156            0.413384443     0.884961441   0.000334779492 -0.000190671943   0.000334779493 -0.000190671943       0.42020729     0.881748813
12.662184            0.413851613     0.884721679   0.000335260084 -0.000191198417   0.000335260084 -0.000191198417      0.420674113     0.881504708
12.662212            0.414319057     0.884481445   0.000335741369 -0.000191726401   0.000335741369 -0.000191726401      0.421141207     0.881260126
12.66224             0.414786775      0.88424074   0.000336223347   -0.0001922559   0.000336223347   -0.0001922559      0.421608572     0.881015068
12.662268            0.415254767     0.883999561   0.000336706019 -0.000192786917   0.000336706019 -0.000192786917      0.422076208     0.880769532
12.662296            0.415723034     0.883757907   0.000337189386 -0.000193319458   0.000337189386 -0.000193319458      0.422544116     0.880523518
12.662324            0.416191574     0.883515779   0.000337673447 -0.000193853528   0.000337673447 -0.000193853528      0.423012295     0.880277024
12.662352            0.416660389     0.883273175   0.000338158204 -0.000194389131   0.000338158204 -0.000194389131      0.423480745     0.880030049
12.66238             0.417129478     0.883030094   0.000338643658 -0.000194926271   0.000338643658 -0.000194926271      0.423949466     0.879782593
12.662408            0.417598841     0.882786535   0.000339129808 -0.000195464955   0.000339129808 -0.000195464955      0.424418459     0.879534654
12.662436            0.418068479     0.882542497   0.000339616655 -0.000196005185   0.000339616655 -0.000196005185      0.424887724     0.879286232
12.662464            0.418538392     0.882297979   0.000340104201 -0.000196546968   0.000340104201 -0.000196546968       0.42535726     0.879037326
12.662492            0.419008579     0.882052981   0.000340592444 -0.000197090308   0.000340592444 -0.000197090308      0.425827068     0.878787934
12.66252             0.419479042     0.881807501   0.000341081386  -0.00019763521   0.000341081386  -0.00019763521      0.426297148     0.878538056
12.662548            0.419949779     0.881561538   0.000341571028 -0.000198181679   0.000341571028 -0.000198181679        0.4267675     0.878287691
12.662576            0.420420791     0.881315092    0.00034206137 -0.000198729719    0.00034206137 -0.000198729719      0.427238124     0.878036838
12.662604            0.420892078     0.881068161   0.000342552412 -0.000199279335   0.000342552412 -0.000199279335       0.42770902     0.877785495
12.662632            0.421363641     0.880820745   0.000343044155 -0.000199830533   0.000343044155 -0.000199830533      0.428180188     0.877533663
12.66266             0.421835478     0.880572842   0.000343536599 -0.000200383317   0.000343536599 -0.000200383317      0.428651629      0.87728134
12.662688            0.422307591     0.880324452   0.000344029746 -0.000200937692   0.000344029746 -0.000200937692      0.429123341     0.877028525
12.662716             0.42277998     0.880075573   0.000344523595 -0.000201493663   0.000344523595 -0.000201493663      0.429595326     0.876775216
12.662744            0.423252644     0.879826206   0.000345018147 -0.000202051235   0.000345018147 -0.000202051235      0.430067584     0.876521414
12.662772            0.423725583     0.879576348   0.000345513402 -0.000202610413   0.000345513403 -0.000202610413      0.430540114     0.876267117
12.6628              0.424198798     0.879325999   0.000346009362 -0.000203171202   0.000346009362 -0.000203171202      0.431012916     0.876012324
12.662828            0.424672289     0.879075157   0.000346506026 -0.000203733607   0.000346506026 -0.000203733607      0.431485992     0.875757035
12.662856            0.425146056     0.878823823   0.000347003395 -0.000204297633   0.000347003395 -0.000204297633      0.431959339     0.875501247
12.662884            0.425620098     0.878571994   0.000347501469 -0.000204863285    0.00034750147 -0.000204863285       0.43243296     0.875244961
12.662912            0.426094417      0.87831967    0.00034800025 -0.000205430568    0.00034800025 -0.000205430568      0.432906854     0.874988175
12.66294             0.426569012      0.87806685   0.000348499737 -0.000205999487   0.000348499737 -0.000205999487       0.43338102     0.874730888
12.662968            0.427043882     0.877813533   0.000348999931 -0.000206570047   0.000348999931 -0.000206570047       0.43385546     0.874473099
12.662996            0.427519029     0.877559718   0.000349500832 -0.000207142254   0.000349500832 -0.000207142254      0.434330173     0.874214808
12.663024            0.427994452     0.877305404   0.000350002441 -0.000207716112   0.000350002441 -0.000207716112      0.434805158     0.873956013
12.663052            0.428470152      0.87705059   0.000350504758 -0.000208291626   0.000350504758 -0.000208291626      0.435280417     0.873696714
12.66308             0.428946128     0.876795275   0.000351007784 -0.000208868802   0.000351007784 -0.000208868802      0.435755949     0.873436908
12.663108            0.429422381     0.876539458    0.00035151152 -0.000209447645    0.00035151152 -0.000209447645      0.436231755     0.873176596
12.663136             0.42989891     0.876283138   0.000352015965  -0.00021002816   0.000352015965  -0.00021002816      0.436707834     0.872915777
12.663164            0.430375715     0.876026313    0.00035252112 -0.000210610352    0.00035252112 -0.000210610352      0.437184186     0.872654448
12.663192            0.430852798     0.875768984   0.000353026985 -0.000211194227   0.000353026985 -0.000211194227      0.437660812      0.87239261
12.66322             0.431330157     0.875511149   0.000353533562 -0.000211779789   0.000353533562 -0.000211779789      0.438137712     0.872130262
12.663248            0.431807793     0.875252807    0.00035404085 -0.000212367045    0.00035404085 -0.000212367045      0.438614885     0.871867401
12.663276            0.432285706     0.874993957   0.000354548851 -0.000212955998   0.000354548851 -0.000212955998      0.439092331     0.871604028
12.663304            0.432763896     0.874734598   0.000355057563 -0.000213546655   0.000355057563 -0.000213546655      0.439570052     0.871340141
12.663332            0.433242363     0.874474729   0.000355566988 -0.000214139021   0.000355566988 -0.000214139021      0.440048046     0.871075739
12.66336             0.433721107     0.874214348   0.000356077126 -0.000214733101   0.000356077126 -0.000214733101      0.440526314     0.870810822
12.663388            0.434200129     0.873953456   0.000356587978   -0.0002153289   0.000356587978   -0.0002153289      0.441004856     0.870545388
12.663416            0.434679427     0.873692051   0.000357099544 -0.000215926425   0.000357099544 -0.000215926425      0.441483672     0.870279436
12.663444            0.435159003     0.873430131   0.000357611824 -0.000216525679   0.000357611824 -0.000216525679      0.441962763     0.870012965
12.663472            0.435638857     0.873167697   0.000358124819 -0.000217126669   0.000358124819 -0.000217126669      0.442442127     0.869745974
12.6635              0.436118988     0.872904746    0.00035863853   -0.0002177294    0.00035863853   -0.0002177294      0.442921765     0.869478463
12.663528            0.436599396     0.872641278   0.000359152956 -0.000218333878   0.000359152956 -0.000218333878      0.443401677      0.86921043
12.663556            0.437080082     0.872377293   0.000359668097 -0.000218940107   0.000359668097 -0.000218940107      0.443881864     0.868941873
12.663584            0.437561045     0.872112787   0.000360183955 -0.000219548094   0.000360183955 -0.000219548094      0.444362325     0.868672793
12.663612            0.438042287     0.871847762    0.00036070053 -0.000220157844    0.00036070053 -0.000220157844       0.44484306     0.868403187
12.66364             0.438523806     0.871582215   0.000361217822 -0.000220769362   0.000361217822 -0.000220769362       0.44532407     0.868133056
12.663668            0.439005602     0.871316146   0.000361735832 -0.000221382654   0.000361735832 -0.000221382654      0.445805354     0.867862397
12.663696            0.439487677     0.871049554   0.000362254559 -0.000221997725   0.000362254559 -0.000221997725      0.446286913     0.867591211
12.663724             0.43997003     0.870782437   0.000362774004 -0.000222614582   0.000362774004 -0.000222614582      0.446768746     0.867319495
12.663752             0.44045266     0.870514795   0.000363294169 -0.000223233228   0.000363294169 -0.000223233228      0.447250854     0.867047249
12.66378             0.440935569     0.870246626   0.000363815051 -0.000223853672   0.000363815051 -0.000223853672      0.447733236     0.866774471
12.663808            0.441418756      0.86997793   0.000364336654 -0.000224475916   0.000364336654 -0.000224475916      0.448215893     0.866501162
12.663836            0.441902221     0.869708705   0.000364858975 -0.000225099969   0.000364858975 -0.000225099969      0.448698825     0.866227318
12.663864            0.442385964     0.869438951   0.000365382017 -0.000225725834   0.000365382017 -0.000225725834      0.449182031     0.865952941
12.663892            0.442869985     0.869168666   0.000365905779 -0.000226353518   0.000365905779 -0.000226353518      0.449665512     0.865678028
12.66392             0.443354285     0.868897849   0.000366430262 -0.000226983026   0.000366430262 -0.000226983026      0.450149268     0.865402578
12.663948            0.443838863     0.868626499   0.000366955465 -0.000227614365   0.000366955465 -0.000227614365      0.450633299      0.86512659
12.663976            0.444323719     0.868354616    0.00036748139 -0.000228247539    0.00036748139 -0.000228247539      0.451117605     0.864850064
12.664004            0.444808854     0.868082197   0.000368008036 -0.000228882555   0.000368008036 -0.000228882555      0.451602185     0.864572998
12.664032            0.445294267     0.867809243   0.000368535404 -0.000229519418   0.000368535404 -0.000229519418      0.452087041     0.864295391
12.66406             0.445779959     0.867535751   0.000369063494 -0.000230158135   0.000369063494 -0.000230158135      0.452572172     0.864017242
12.664088             0.44626593     0.867261721   0.000369592306  -0.00023079871   0.000369592306  -0.00023079871      0.453057577     0.863738551
12.664116            0.446752179     0.866987152   0.000370121842  -0.00023144115   0.000370121842  -0.00023144115      0.453543258     0.863459315
12.664144            0.447238706     0.866712043     0.0003706521 -0.000232085461     0.0003706521 -0.000232085461      0.454029214     0.863179534
12.664172            0.447725513     0.866436392   0.000371183081 -0.000232731648   0.000371183081 -0.000232731648      0.454515445     0.862899206
12.6642              0.448212598     0.866160199   0.000371714786 -0.000233379718   0.000371714786 -0.000233379718      0.455001951     0.862618331
12.664228            0.448699962     0.865883462   0.000372247215 -0.000234029676   0.000372247215 -0.000234029676      0.455488733     0.862336908
12.664256            0.449187605     0.865606181   0.000372780368 -0.000234681528   0.000372780368 -0.000234681528      0.455975789     0.862054935
12.664284            0.449675527     0.865328354   0.000373314245  -0.00023533528   0.000373314245  -0.00023533528      0.456463121     0.861772412
12.664312            0.450163728      0.86504998   0.000373848847 -0.000235990939   0.000373848847 -0.000235990939      0.456950728     0.861489336
12.66434             0.450652208     0.864771058   0.000374384174 -0.000236648509   0.000374384174 -0.000236648509      0.457438611     0.861205708
12.664368            0.451140966     0.864491587   0.000374920225 -0.000237307997   0.000374920225 -0.000237307997      0.457926769     0.860921526
12.664396            0.451630004     0.864211566   0.000375457002  -0.00023796941   0.000375457002  -0.00023796941      0.458415202     0.860636789
12.664424            0.452119321     0.863930993   0.000375994505 -0.000238632753   0.000375994505 -0.000238632753      0.458903911     0.860351496
12.664452            0.452608917     0.863649868   0.000376532733 -0.000239298031   0.000376532733 -0.000239298031      0.459392895     0.860065645
12.66448             0.453098792      0.86336819   0.000377071687 -0.000239965253   0.000377071687 -0.000239965253      0.459882154     0.859779236
12.664508            0.453588946     0.863085958   0.000377611367 -0.000240634422   0.000377611367 -0.000240634422      0.460371689     0.859492267
12.664536             0.45407938     0.862803169   0.000378151774 -0.000241305546   0.000378151774 -0.000241305546      0.460861499     0.859204738
12.664564            0.454570092     0.862519824   0.000378692907 -0.000241978631   0.000378692907 -0.000241978631      0.461351585     0.858916647
12.664592            0.455061084     0.862235921   0.000379234767 -0.000242653682   0.000379234767 -0.000242653682      0.461841946     0.858627993
12.66462             0.455552356     0.861951459   0.000379777353 -0.000243330707   0.000379777353 -0.000243330707      0.462332583     0.858338775
12.664648            0.456043906     0.861666436   0.000380320667  -0.00024400971   0.000380320667  -0.00024400971      0.462823496     0.858048992
12.664676            0.456535736     0.861380853   0.000380864708   -0.0002446907   0.000380864708   -0.0002446907      0.463314684     0.857758643
12.664704            0.457027845     0.861094707   0.000381409477  -0.00024537368   0.000381409477  -0.00024537368      0.463806147     0.857467726
12.664732            0.457520234     0.860807997   0.000381954973 -0.000246058659   0.000381954973 -0.000246058659      0.464297886     0.857176241
12.66476             0.458012902     0.860520723   0.000382501197 -0.000246745642   0.000382501196 -0.000246745642      0.464789901     0.856884186
12.664788             0.45850585     0.860232883   0.000383048148 -0.000247434635   0.000383048148 -0.000247434635      0.465282191      0.85659156
12.664816            0.458999077     0.859944476   0.000383595828 -0.000248125646   0.000383595828 -0.000248125646      0.465774757     0.856298363
12.664844            0.459492583     0.859655501   0.000384144236 -0.000248818679   0.000384144236 -0.000248818679      0.466267599     0.856004592
12.664872            0.459986369     0.859365956   0.000384693372 -0.000249513742   0.000384693372 -0.000249513742      0.466760716     0.855710247
12.6649              0.460480435     0.859075842   0.000385243236 -0.000250210841   0.000385243236 -0.000250210841      0.467254109     0.855415326
12.664928             0.46097478     0.858785155   0.000385793829 -0.000250909983   0.000385793829 -0.000250909983      0.467747777     0.855119829
12.664956            0.461469405     0.858493896   0.000386345151 -0.000251611173   0.000386345151 -0.000251611173      0.468241721     0.854823754
12.664984            0.461964309     0.858202063   0.000386897201 -0.000252314419   0.000386897201 -0.000252314419      0.468735941       0.8545271
12.665012            0.462459493     0.857909655    0.00038744998 -0.000253019726    0.00038744998 -0.000253019726      0.469230437     0.854229866
12.66504             0.462954956     0.857616671   0.000388003488 -0.000253727102   0.000388003488 -0.000253727102      0.469725208     0.853932051
12.665068            0.463450699      0.85732311   0.000388557724 -0.000254436552   0.000388557724 -0.000254436552      0.470220254     0.853633653
12.665096            0.463946722      0.85702897    0.00038911269 -0.000255148084    0.00038911269 -0.000255148084      0.470715577     0.853334672
12.665124            0.464443024     0.856734251   0.000389668385 -0.000255861703   0.000389668385 -0.000255861703      0.471211175     0.853035106
12.665152            0.464939606      0.85643895   0.000390224809 -0.000256577418   0.000390224809 -0.000256577418      0.471707048     0.852734955
12.66518             0.465436468     0.856143068   0.000390781962 -0.000257295233   0.000390781962 -0.000257295233      0.472203198     0.852434216
12.665208            0.465933609     0.855846602   0.000391339844 -0.000258015156   0.000391339844 -0.000258015156      0.472699622     0.852132888
12.665236             0.46643103     0.855549552   0.000391898456 -0.000258737193   0.000391898456 -0.000258737193      0.473196323     0.851830972
12.665264             0.46692873     0.855251916   0.000392457797 -0.000259461352   0.000392457797 -0.000259461352      0.473693299     0.851528464
12.665292            0.467426711     0.854953694   0.000393017867 -0.000260187638   0.000393017867 -0.000260187638      0.474190551     0.851225365
12.66532             0.467924971     0.854654884   0.000393578666 -0.000260916059   0.000393578666 -0.000260916059      0.474688078     0.850921673
12.665348             0.46842351     0.854355484   0.000394140195  -0.00026164662   0.000394140195  -0.00026164662      0.475185881     0.850617386
12.665376            0.468922329     0.854055495   0.000394702453  -0.00026237933   0.000394702453  -0.00026237933       0.47568396     0.850312504
12.665404            0.469421428     0.853754913    0.00039526544 -0.000263114195    0.00039526544 -0.000263114195      0.476182314     0.850007025