! TOUCHSTONE file generated by CST MICROWAVE STUDIO
! Date and time: Wed Jul 31 14:54:58 2024
! Project name: WaveGuide_BPF-Ver4.1_U-shape_Ku_T3_C4_CWA_2.cst
! Parameters = {cavity_h=16; cavity_l0=10; cavity_l1=15.2022; cavity_l2=16.8494; cavity_l3=17.1328; cavity_l4=17.2493; cavity_l5=17.1299; cavity_l6=17.6241; cavity_r=2.5; cavity_screw_l=0.5; cavity_screw_r=1.5; cavity_w=8; iris_h00=0; iris_h01=8.8408; iris_h112=0; iris_h12=5.603; iris_h211=3.6515; iris_h23=5.2056; iris_h310=3.9741; iris_h34=5.0752; iris_h45=4.9261; iris_h49=4.6214; iris_h56=4.8018; iris_h58=4.4434; iris_h67=6.5836; iris_rx=0.1; iris_screw_l=0.5; iris_screw_r=1.5; iris_shift00=0; iris_shift112=0; iris_shift211=3.5; iris_shift310=0; iris_shift49=0; iris_shift58=3.5; iris_shift67=3.5; iris_tx=4.5; iris_tz=4.5; iris_w00=0; iris_w112=0; iris_w211=4; iris_w310=3.9741; iris_w49=4.6214; iris_w58=4; iris_w67=4; mesh_cavity=5; mesh_iris=7; mesh_screw=7; order=12; reset_all=0; sigma=4.8e+07}
! Header version: 2018
! Port assignment regex: !\s*Touchstone port\s*([0-9]+)\s*=\s*(CST MWS port|CST DS port)\s*([0-9]+|Zmin|Zmax)\s*\(\"(.*)\"\)(\s*mode\s*([0-9]+))?.*
! Touchstone port assignment:
! Touchstone port 1 = CST MWS port 1 ("")
! Touchstone port 2 = CST MWS port 2 ("")
# GHz S RI R 50
12.66                0.416548135      0.88464277   0.000275593393  -0.00015703399   0.000275593393 -0.000157033991      0.426228633     0.879902595
12.660028            0.416993382     0.884413782   0.000275962556 -0.000157441762   0.000275962557 -0.000157441763      0.426675211     0.879666666
12.660056            0.417438811     0.884184396   0.000276332213 -0.000157850617   0.000276332213 -0.000157850618      0.427122027     0.879430304
12.660084             0.41788445       0.8839546   0.000276702359 -0.000158260562   0.000276702359 -0.000158260562      0.427569084     0.879193506
12.660112            0.418330324     0.883724381    0.00027707299 -0.000158671602   0.000277072991 -0.000158671602      0.428016382     0.878956273
12.66014             0.418776461     0.883493725   0.000277444103 -0.000159083743   0.000277444103 -0.000159083744      0.428463923     0.878718603
12.660168             0.41922286     0.883262633   0.000277815696  -0.00015949699   0.000277815696  -0.00015949699      0.428911706     0.878480493
12.660196            0.419669503     0.883031111   0.000278187774 -0.000159911342   0.000278187774 -0.000159911342      0.429359732     0.878241946
12.660224            0.420116392     0.882799158   0.000278560337 -0.000160326804   0.000278560337 -0.000160326804         0.429808     0.878002958
12.660252            0.420563525     0.882566775   0.000278933385 -0.000160743377   0.000278933385 -0.000160743378       0.43025651     0.877763531
12.66028             0.421010903     0.882333959   0.000279306918 -0.000161161067   0.000279306918 -0.000161161067      0.430705262     0.877523662
12.660308            0.421458526      0.88210071   0.000279680937 -0.000161579874   0.000279680937 -0.000161579875      0.431154257     0.877283351
12.660336            0.421906395     0.881867028   0.000280055441 -0.000161999804   0.000280055441 -0.000161999804      0.431603494     0.877042597
12.660364            0.422354508     0.881632912   0.000280430432 -0.000162420859   0.000280430432 -0.000162420859      0.432052974       0.8768014
12.660392            0.422802867      0.88139836   0.000280805908 -0.000162843041   0.000280805909 -0.000162843042      0.432502696     0.876559758
12.66042             0.423251471     0.881163372   0.000281181872 -0.000163266356   0.000281181872 -0.000163266356       0.43295266     0.876317671
12.660448            0.423700321     0.880927947   0.000281558322 -0.000163690805   0.000281558322 -0.000163690805      0.433402868     0.876075138
12.660476            0.424149416     0.880692085   0.000281935259 -0.000164116391   0.000281935259 -0.000164116392      0.433853318     0.875832158
12.660504            0.424598756     0.880455784   0.000282312684 -0.000164543119   0.000282312684  -0.00016454312       0.43430401      0.87558873
12.660532            0.425048342     0.880219044   0.000282690596 -0.000164970992   0.000282690596 -0.000164970992      0.434754946     0.875344854
12.66056             0.425498174     0.879981863   0.000283068995 -0.000165400012   0.000283068996 -0.000165400012      0.435206124     0.875100528
12.660588            0.425948252     0.879744242   0.000283447883 -0.000165830183   0.000283447883 -0.000165830183      0.435657546     0.874855752
12.660616            0.426398575     0.879506179   0.000283827259 -0.000166261508   0.000283827259 -0.000166261508       0.43610921     0.874610525
12.660644            0.426849145     0.879267673   0.000284207123 -0.000166693991   0.000284207123 -0.000166693991      0.436561117     0.874364845
12.660672             0.42729996     0.879028724   0.000284587476 -0.000167127634   0.000284587476 -0.000167127634      0.437013268     0.874118713
12.6607              0.427751022     0.878789331   0.000284968318 -0.000167562442   0.000284968318 -0.000167562442      0.437465661     0.873872128
12.660728            0.428202329     0.878549492   0.000285349649 -0.000167998417   0.000285349649 -0.000167998417      0.437918298     0.873625088
12.660756            0.428653883     0.878309208   0.000285731469 -0.000168435563   0.000285731469 -0.000168435563      0.438371178     0.873377592
12.660784            0.429105683     0.878068477   0.000286113778 -0.000168873883   0.000286113779 -0.000168873884      0.438824301     0.873129641
12.660812            0.429557729     0.877827298   0.000286496578 -0.000169313381   0.000286496578 -0.000169313381      0.439277668     0.872881232
12.66084             0.430010022     0.877585671   0.000286879867  -0.00016975406   0.000286879867  -0.00016975406      0.439731278     0.872632366
12.660868            0.430462561     0.877343595   0.000287263646 -0.000170195923   0.000287263647 -0.000170195923      0.440185131     0.872383041
12.660896            0.430915346     0.877101068   0.000287647916 -0.000170638973   0.000287647916 -0.000170638974      0.440639228     0.872133256
12.660924            0.431368379     0.876858091   0.000288032676 -0.000171083215   0.000288032676 -0.000171083215      0.441093569     0.871883011
12.660952            0.431821657     0.876614661   0.000288417927 -0.000171528651   0.000288417927 -0.000171528651      0.441548153     0.871632305
12.66098             0.432275183     0.876370779   0.000288803668 -0.000171975285   0.000288803669 -0.000171975285      0.442002981     0.871381136
12.661008            0.432728955     0.876126444   0.000289189901  -0.00017242312   0.000289189901 -0.000172423121      0.442458053     0.871129505
12.661036            0.433182974     0.875881654   0.000289576625  -0.00017287216   0.000289576625 -0.000172872161      0.442913368     0.870877409
12.661064             0.43363724      0.87563641   0.000289963841 -0.000173322409   0.000289963841 -0.000173322409      0.443368927     0.870624849
12.661092            0.434091753     0.875390709   0.000290351548 -0.000173773868   0.000290351548 -0.000173773869       0.44382473     0.870371823
12.66112             0.434546513     0.875144551   0.000290739746 -0.000174226544   0.000290739747 -0.000174226544      0.444280777     0.870118331
12.661148             0.43500152     0.874897935   0.000291128437 -0.000174680437   0.000291128437 -0.000174680437      0.444737067     0.869864372
12.661176            0.435456774     0.874650861    0.00029151762 -0.000175135553    0.00029151762 -0.000175135553      0.445193602     0.869609944
12.661204            0.435912275     0.874403327   0.000291907295 -0.000175591894   0.000291907295 -0.000175591894      0.445650381     0.869355047
12.661232            0.436368023     0.874155334   0.000292297462 -0.000176049465   0.000292297463 -0.000176049465      0.446107404      0.86909968
12.66126             0.436824019     0.873906878   0.000292688122 -0.000176508268   0.000292688123 -0.000176508268      0.446564671     0.868843843
12.661288            0.437280262     0.873657961   0.000293079275 -0.000176968307   0.000293079275 -0.000176968307      0.447022182     0.868587533
12.661316            0.437736753     0.873408581   0.000293470921 -0.000177429586   0.000293470921 -0.000177429586      0.447479937     0.868330751
12.661344            0.438193491     0.873158737    0.00029386306 -0.000177892108    0.00029386306 -0.000177892108      0.447937936     0.868073496
12.661372            0.438650476     0.872908428   0.000294255691 -0.000178355877   0.000294255692 -0.000178355877       0.44839618     0.867815766
12.6614              0.439107709     0.872657654   0.000294648817 -0.000178820896   0.000294648817 -0.000178820896      0.448854668      0.86755756
12.661428             0.43956519     0.872406413   0.000295042435  -0.00017928717   0.000295042435  -0.00017928717      0.449313401     0.867298879
12.661456            0.440022918     0.872154705   0.000295436547 -0.000179754701   0.000295436548 -0.000179754701      0.449772377     0.867039721
12.661484            0.440480895     0.871902529   0.000295831153 -0.000180223493   0.000295831154 -0.000180223493      0.450231598     0.866780084
12.661512            0.440939118     0.871649884   0.000296226253  -0.00018069355   0.000296226253  -0.00018069355      0.450691064     0.866519969
12.66154              0.44139759     0.871396769   0.000296621847 -0.000181164875   0.000296621847 -0.000181164875      0.451150774     0.866259374
12.661568             0.44185631     0.871143183   0.000297017934 -0.000181637472   0.000297017935 -0.000181637473      0.451610729     0.865998298
12.661596            0.442315277     0.870889125   0.000297414516 -0.000182111345   0.000297414517 -0.000182111346      0.452070928     0.865736741
12.661624            0.442774493     0.870634595   0.000297811592 -0.000182586498   0.000297811593 -0.000182586498      0.452531372     0.865474701
12.661652            0.443233957     0.870379591   0.000298209163 -0.000183062934   0.000298209163 -0.000183062934      0.452992061     0.865212178
12.66168             0.443693668     0.870124113   0.000298607228 -0.000183540656   0.000298607228 -0.000183540656      0.453452994     0.864949171
12.661708            0.444153628     0.869868159   0.000299005788 -0.000184019669   0.000299005788 -0.000184019669      0.453914172     0.864685679
12.661736            0.444613836     0.869611729   0.000299404842 -0.000184499975   0.000299404842 -0.000184499976      0.454375594       0.8644217
12.661764            0.445074292     0.869354823   0.000299804391  -0.00018498158   0.000299804392  -0.00018498158      0.454837261     0.864157234
12.661792            0.445534997     0.869097438   0.000300204435 -0.000185464486   0.000300204436 -0.000185464487      0.455299174     0.863892281
12.66182             0.445995949     0.868839574   0.000300604974 -0.000185948698   0.000300604974 -0.000185948698       0.45576133     0.863626838
12.661848            0.446457151      0.86858123   0.000301006008 -0.000186434219   0.000301006008 -0.000186434219      0.456223732     0.863360906
12.661876              0.4469186     0.868322406   0.000301407537 -0.000186921052   0.000301407538 -0.000186921052      0.456686379     0.863094483
12.661904            0.447380298       0.8680631   0.000301809562 -0.000187409202   0.000301809562 -0.000187409202       0.45714927     0.862827569
12.661932            0.447842245     0.867803312   0.000302212081 -0.000187898673   0.000302212081 -0.000187898673      0.457612407     0.862560162
12.66196              0.44830444      0.86754304   0.000302615096 -0.000188389467   0.000302615096 -0.000188389467      0.458075788     0.862292261
12.661988            0.448766883     0.867282284   0.000303018606  -0.00018888159   0.000303018606  -0.00018888159      0.458539415     0.862023867
12.662016            0.449229575     0.867021042   0.000303422612 -0.000189375044   0.000303422612 -0.000189375044      0.459003286     0.861754976
12.662044            0.449692516     0.866759314   0.000303827113 -0.000189869834   0.000303827113 -0.000189869835      0.459467402      0.86148559
12.662072            0.450155706     0.866497099   0.000304232109 -0.000190365964   0.000304232109 -0.000190365964      0.459931764     0.861215706
12.6621              0.450619144     0.866234396   0.000304637601 -0.000190863437   0.000304637602 -0.000190863437       0.46039637     0.860945324
12.662128            0.451082831     0.865971205   0.000305043589 -0.000191362257   0.000305043589 -0.000191362257      0.460861222     0.860674443
12.662156            0.451546767     0.865707523   0.000305450072 -0.000191862428   0.000305450073 -0.000191862428      0.461326319     0.860403062
12.662184            0.452010952      0.86544335   0.000305857051 -0.000192363954   0.000305857052 -0.000192363954      0.461791661      0.86013118
12.662212            0.452475385     0.865178686   0.000306264526 -0.000192866839   0.000306264526 -0.000192866839      0.462257248     0.859858796
12.66224             0.452940068     0.864913528   0.000306672496 -0.000193371086   0.000306672497 -0.000193371086       0.46272308      0.85958591
12.662268            0.453404999     0.864647878   0.000307080962   -0.0001938767   0.000307080963 -0.000193876701      0.463189157     0.859312519
12.662296             0.45387018     0.864381732   0.000307489924 -0.000194383685   0.000307489925 -0.000194383685       0.46365548     0.859038624
12.662324            0.454335609     0.864115091   0.000307899382 -0.000194892045   0.000307899382 -0.000194892045      0.464122047     0.858764223
12.662352            0.454801288     0.863847954   0.000308309335 -0.000195401783   0.000308309335 -0.000195401783       0.46458886     0.858489315
12.66238             0.455267215     0.863580319   0.000308719784 -0.000195912903   0.000308719785 -0.000195912903      0.465055919     0.858213899
12.662408            0.455733392     0.863312186   0.000309130729  -0.00019642541   0.000309130729  -0.00019642541      0.465523222     0.857937975
12.662436            0.456199818     0.863043554    0.00030954217 -0.000196939307    0.00030954217 -0.000196939307      0.465990771     0.857661542
12.662464            0.456666493     0.862774421   0.000309954106 -0.000197454599   0.000309954106 -0.000197454599      0.466458565     0.857384598
12.662492            0.457133417     0.862504787   0.000310366538 -0.000197971289   0.000310366538 -0.000197971289      0.466926604     0.857107142
12.66252              0.45760059     0.862234651   0.000310779465 -0.000198489382   0.000310779466 -0.000198489382      0.467394889     0.856829174
12.662548            0.458068013     0.861964012   0.000311192889 -0.000199008881   0.000311192889 -0.000199008881      0.467863419     0.856550692
12.662576            0.458535685     0.861692869   0.000311606807 -0.000199529791   0.000311606808 -0.000199529791      0.468332194     0.856271696
12.662604            0.459003606     0.861421221   0.000312021222 -0.000200052115   0.000312021222 -0.000200052116      0.468801215     0.855992185
12.662632            0.459471777     0.861149067   0.000312436132 -0.000200575859   0.000312436132 -0.000200575859      0.469270481     0.855712157
12.66266             0.459940197     0.860876405   0.000312851537 -0.000201101025   0.000312851537 -0.000201101025      0.469739992     0.855431612
12.662688            0.460408866     0.860603236   0.000313267438 -0.000201627618   0.000313267438 -0.000201627618      0.470209749     0.855150548
12.662716            0.460877785     0.860329558   0.000313683834 -0.000202155642   0.000313683834 -0.000202155642      0.470679751     0.854868965
12.662744            0.461346953      0.86005537   0.000314100726 -0.000202685101   0.000314100726 -0.000202685101      0.471149998     0.854586862
12.662772             0.46181637     0.859780671   0.000314518112 -0.000203215999   0.000314518113 -0.000203215999      0.471620491     0.854304237
12.6628              0.462286037     0.859505461   0.000314935994 -0.000203748341   0.000314935994 -0.000203748341      0.472091229      0.85402109
12.662828            0.462755954     0.859229737   0.000315354371 -0.000204282131   0.000315354371 -0.000204282131      0.472562212      0.85373742
12.662856             0.46322612       0.8589535   0.000315773243 -0.000204817372   0.000315773243 -0.000204817372      0.473033441     0.853453226
12.662884            0.463696535     0.858676748    0.00031619261 -0.000205354069    0.00031619261 -0.000205354069      0.473504915     0.853168506
12.662912              0.4641672      0.85839948   0.000316612472 -0.000205892226   0.000316612472 -0.000205892227      0.473976635      0.85288326
12.66294             0.464638115     0.858121696   0.000317032828 -0.000206431848   0.000317032828 -0.000206431848        0.4744486     0.852597487
12.662968            0.465109279     0.857843393   0.000317453679 -0.000206972939   0.000317453679 -0.000206972939       0.47492081     0.852311185
12.662996            0.465580693     0.857564572   0.000317875024 -0.000207515502   0.000317875025 -0.000207515502      0.475393265     0.852024354
12.663024            0.466052356     0.857285232   0.000318296864 -0.000208059542   0.000318296865 -0.000208059542      0.475865966     0.851736993
12.663052            0.466524269      0.85700537   0.000318719199 -0.000208605064   0.000318719199 -0.000208605064      0.476338913       0.8514491
12.66308             0.466996432     0.856724987   0.000319142027 -0.000209152071   0.000319142027 -0.000209152071      0.476812104     0.851160675
12.663108            0.467468844     0.856444081   0.000319565349 -0.000209700568   0.000319565349 -0.000209700569      0.477285541     0.850871717
12.663136            0.467941506     0.856162651   0.000319989165  -0.00021025056   0.000319989166  -0.00021025056      0.477759224     0.850582224
12.663164            0.468414417     0.855880697   0.000320413475  -0.00021080205   0.000320413476  -0.00021080205      0.478233151     0.850292196
12.663192            0.468887579     0.855598217   0.000320838279 -0.000211355043   0.000320838279 -0.000211355043      0.478707324     0.850001631
12.66322              0.46936099      0.85531521   0.000321263576 -0.000211909543   0.000321263576 -0.000211909543      0.479181742     0.849710529
12.663248             0.46983465     0.855031676   0.000321689366 -0.000212465554   0.000321689366 -0.000212465554      0.479656406     0.849418889
12.663276             0.47030856     0.854747612   0.000322115649 -0.000213023082    0.00032211565 -0.000213023082      0.480131314     0.849126709
12.663304             0.47078272     0.854463019   0.000322542426 -0.000213582129   0.000322542426  -0.00021358213      0.480606468     0.848833988
12.663332             0.47125713     0.854177895   0.000322969695 -0.000214142702   0.000322969695 -0.000214142702      0.481081867     0.848540726
12.66336             0.471731789     0.853892239   0.000323397456 -0.000214704803   0.000323397456 -0.000214704804      0.481557512     0.848246921
12.663388            0.472206698     0.853606051    0.00032382571 -0.000215268438    0.00032382571 -0.000215268439      0.482033401     0.847952573
12.663416            0.472681857     0.853319328   0.000324254456 -0.000215833611   0.000324254457 -0.000215833612      0.482509536     0.847657679
12.663444            0.473157265     0.853032071   0.000324683695 -0.000216400327   0.000324683695 -0.000216400327      0.482985916      0.84736224
12.663472            0.473632923     0.852744277   0.000325113425 -0.000216968589   0.000325113425 -0.000216968589      0.483462541     0.847066255
12.6635              0.474108831     0.852455947   0.000325543646 -0.000217538403   0.000325543647 -0.000217538403      0.483939412     0.846769721
12.663528            0.474584989     0.852167078   0.000325974359 -0.000218109772    0.00032597436 -0.000218109772      0.484416527     0.846472639
12.663556            0.475061396     0.851877671   0.000326405564 -0.000218682702   0.000326405564 -0.000218682702      0.484893887     0.846175006
12.663584            0.475538053     0.851587723   0.000326837259 -0.000219257196   0.000326837259 -0.000219257196      0.485371493     0.845876823
12.663612             0.47601496     0.851297235   0.000327269444  -0.00021983326   0.000327269445  -0.00021983326      0.485849343     0.845578088
12.66364             0.476492116     0.851006204   0.000327702121 -0.000220410897   0.000327702121 -0.000220410898      0.486327439     0.845278799
12.663668            0.476969522      0.85071463   0.000328135287 -0.000220990113   0.000328135287 -0.000220990114      0.486805779     0.844978956
12.663696            0.477447178     0.850422512   0.000328568943 -0.000221570912   0.000328568944 -0.000221570913      0.487284365     0.844678558
12.663724            0.477925083     0.850129848    0.00032900309 -0.000222153299    0.00032900309 -0.000222153299      0.487763195     0.844377604
12.663752            0.478403238     0.849836638   0.000329437725 -0.000222737278   0.000329437725 -0.000222737278      0.488242271     0.844076092
12.66378             0.478881643      0.84954288    0.00032987285 -0.000223322853    0.00032987285 -0.000223322853      0.488721591     0.843774022
12.663808            0.479360297     0.849248574   0.000330308463  -0.00022391003   0.000330308463  -0.00022391003      0.489201156     0.843471393
12.663836            0.479839201     0.848953719   0.000330744565 -0.000224498813   0.000330744566 -0.000224498813      0.489680966     0.843168202
12.663864            0.480318354     0.848658313   0.000331181156 -0.000225089206   0.000331181156 -0.000225089206       0.49016102      0.84286445
12.663892            0.480797757     0.848362355   0.000331618234 -0.000225681215   0.000331618234 -0.000225681215      0.490641319     0.842560136
12.66392              0.48127741     0.848065844     0.0003320558 -0.000226274844     0.0003320558 -0.000226274844      0.491121863     0.842255257
12.663948            0.481757312      0.84776878   0.000332493854 -0.000226870097   0.000332493854 -0.000226870097      0.491602652     0.841949813
12.663976            0.482237464     0.847471161   0.000332932394  -0.00022746698   0.000332932394  -0.00022746698      0.492083685     0.841643804
12.664004            0.482717866     0.847172985   0.000333371421 -0.000228065497   0.000333371422 -0.000228065497      0.492564963     0.841337227
12.664032            0.483198517     0.846874253   0.000333810935 -0.000228665653   0.000333810935 -0.000228665653      0.493046486     0.841030082
12.66406             0.483679417     0.846574963   0.000334250935 -0.000229267452   0.000334250935 -0.000229267452      0.493528253     0.840722368
12.664088            0.484160567     0.846275113    0.00033469142   -0.0002298709    0.00033469142   -0.0002298709      0.494010264     0.840414083
12.664116            0.484641966     0.845974703   0.000335132391    -0.000230476   0.000335132391 -0.000230476001       0.49449252     0.840105227
12.664144            0.485123615     0.845673732   0.000335573847 -0.000231082759   0.000335573847 -0.000231082759       0.49497502     0.839795798
12.664172            0.485605513     0.845372198   0.000336015787  -0.00023169118   0.000336015787  -0.00023169118      0.495457765     0.839485796
12.6642              0.486087661       0.8450701   0.000336458212 -0.000232301269   0.000336458212 -0.000232301269      0.495940753     0.839175218
12.664228            0.486570058     0.844767438    0.00033690112  -0.00023291303    0.00033690112  -0.00023291303      0.496423986     0.838864065
12.664256            0.487052704      0.84446421   0.000337344512 -0.000233526468   0.000337344513 -0.000233526468      0.496907464     0.838552335
12.664284            0.487535599     0.844160416   0.000337788387 -0.000234141589   0.000337788388 -0.000234141589      0.497391185     0.838240026
12.664312            0.488018744     0.843856053   0.000338232745 -0.000234758396   0.000338232746 -0.000234758396      0.497875151     0.837927138
12.66434             0.488502138     0.843551121   0.000338677585 -0.000235376895   0.000338677586 -0.000235376895       0.49835936      0.83761367
12.664368            0.488985782     0.843245619   0.000339122907  -0.00023599709   0.000339122908  -0.00023599709      0.498843814      0.83729962
12.664396            0.489469674     0.842939546   0.000339568711 -0.000236618987   0.000339568711 -0.000236618988      0.499328511     0.836984988
12.664424            0.489953816       0.8426329   0.000340014995 -0.000237242591   0.000340014996 -0.000237242591      0.499813452     0.836669771
12.664452            0.490438207     0.842325681    0.00034046176 -0.000237867906   0.000340461761 -0.000237867907      0.500298637      0.83635397
12.66448             0.490922847     0.842017887   0.000340909005 -0.000238494938   0.000340909006 -0.000238494938      0.500784066     0.836037583
12.664508            0.491407735     0.841709518    0.00034135673 -0.000239123691   0.000341356731 -0.000239123691      0.501269739     0.835720608
12.664536            0.491892873     0.841400572   0.000341804934  -0.00023975417   0.000341804935 -0.000239754171      0.501755655     0.835403046
12.664564             0.49237826     0.841091047   0.000342253617 -0.000240386381   0.000342253617 -0.000240386382      0.502241815     0.835084893
12.664592            0.492863896     0.840780943   0.000342702778 -0.000241020329   0.000342702778 -0.000241020329      0.502728218      0.83476615
12.66462             0.493349781      0.84047026   0.000343152417 -0.000241656017   0.000343152417 -0.000241656017      0.503214865     0.834446816
12.664648            0.493835914     0.840158994   0.000343602533 -0.000242293452   0.000343602533 -0.000242293453      0.503701755     0.834126888
12.664676            0.494322297     0.839847147   0.000344053126 -0.000242932639   0.000344053126 -0.000242932639      0.504188889     0.833806366
12.664704            0.494808928     0.839534715   0.000344504195 -0.000243573583   0.000344504195 -0.000243573583      0.504676266     0.833485249
12.664732            0.495295808     0.839221699    0.00034495574 -0.000244216288    0.00034495574 -0.000244216288      0.505163886     0.833163536
12.66476             0.495782936     0.838908097    0.00034540776  -0.00024486076    0.00034540776  -0.00024486076      0.505651749     0.832841225
12.664788            0.496270314     0.838593907   0.000345860255 -0.000245507003   0.000345860255 -0.000245507004      0.506139855     0.832518316
12.664816            0.496757939      0.83827913   0.000346313224 -0.000246155024   0.000346313224 -0.000246155025      0.506628204     0.832194806
12.664844            0.497245814     0.837963763   0.000346766666 -0.000246804828   0.000346766666 -0.000246804828      0.507116796     0.831870696
12.664872            0.497733936     0.837647805   0.000347220582 -0.000247456418   0.000347220582 -0.000247456418      0.507605631     0.831545983
12.6649              0.498222308     0.837331256    0.00034767497 -0.000248109801    0.00034767497 -0.000248109802      0.508094709     0.831220667
12.664928            0.498710927     0.837014114    0.00034812983 -0.000248764982    0.00034812983 -0.000248764983      0.508584029     0.830894746
12.664956            0.499199795     0.836696377   0.000348585161 -0.000249421966   0.000348585161 -0.000249421967      0.509073592      0.83056822
12.664984            0.499688911     0.836378046   0.000349040963 -0.000250080759   0.000349040963 -0.000250080759      0.509563397     0.830241086
12.665012            0.500178276     0.836059118   0.000349497235 -0.000250741364   0.000349497236 -0.000250741365      0.510053445     0.829913345
12.66504             0.500667888     0.835739593   0.000349953977 -0.000251403789   0.000349953977 -0.000251403789      0.510543735     0.829584994
12.665068            0.501157749     0.835419469   0.000350411187 -0.000252068037   0.000350411188 -0.000252068038      0.511034268     0.829256033
12.665096            0.501647858     0.835098745   0.000350868866 -0.000252734115   0.000350868867 -0.000252734115      0.511525043      0.82892646
12.665124            0.502138214      0.83477742   0.000351327013 -0.000253402028   0.000351327013 -0.000253402028      0.512016059     0.828596274
12.665152            0.502628819     0.834455493   0.000351785626  -0.00025407178   0.000351785626  -0.00025407178      0.512507318     0.828265474
12.66518             0.503119671     0.834132962   0.000352244706 -0.000254743378   0.000352244706 -0.000254743378      0.512998819     0.827934059
12.665208            0.503610771     0.833809827   0.000352704251 -0.000255416826   0.000352704252 -0.000255416826      0.513490562     0.827602027
12.665236            0.504102119     0.833486086   0.000353164262  -0.00025609213   0.000353164262  -0.00025609213      0.513982546     0.827269378
12.665264            0.504593715     0.833161738   0.000353624737 -0.000256769296   0.000353624737 -0.000256769296      0.514474772      0.82693611
12.665292            0.505085558     0.832836781   0.000354085675 -0.000257448328   0.000354085675 -0.000257448328       0.51496724     0.826602222
12.66532             0.505577649     0.832511216   0.000354547076 -0.000258129233   0.000354547077 -0.000258129233      0.515459949     0.826267712
12.665348            0.506069987     0.832185039    0.00035500894 -0.000258812015    0.00035500894 -0.000258812015      0.515952899      0.82593258
12.665376            0.506562572     0.831858251   0.000355471265  -0.00025949668   0.000355471265  -0.00025949668      0.516446091     0.825596824
12.665404            0.507055405      0.83153085   0.000355934051 -0.000260183234   0.000355934051 -0.000260183234      0.516939524     0.825260443