! TOUCHSTONE file generated by CST MICROWAVE STUDIO
! Date and time: Wed Jul 31 14:58:07 2024
! Project name: WaveGuide_BPF-Ver4.1_U-shape_Ku_T3_C4_CWA_2.cst
! Parameters = {cavity_h=16; cavity_l0=10; cavity_l1=15.2301; cavity_l2=16.8468; cavity_l3=17.0774; cavity_l4=17.2452; cavity_l5=17.119; cavity_l6=17.5733; cavity_r=2.5; cavity_screw_l=0.5; cavity_screw_r=1.5; cavity_w=8; iris_h00=0; iris_h01=8.8265; iris_h112=0; iris_h12=5.6128; iris_h211=3.6642; iris_h23=5.1986; iris_h310=3.9759; iris_h34=5.0853; iris_h45=4.9235; iris_h49=4.6163; iris_h56=4.7936; iris_h58=4.4362; iris_h67=6.5844; iris_rx=0.1; iris_screw_l=0.5; iris_screw_r=1.5; iris_shift00=0; iris_shift112=0; iris_shift211=3.5; iris_shift310=0; iris_shift49=0; iris_shift58=3.5; iris_shift67=3.5; iris_tx=4.5; iris_tz=4.5; iris_w00=0; iris_w112=0; iris_w211=4; iris_w310=3.9759; iris_w49=4.6163; iris_w58=4; iris_w67=4; mesh_cavity=5; mesh_iris=7; mesh_screw=7; order=12; reset_all=0; sigma=4.8e+07}
! Header version: 2018
! Port assignment regex: !\s*Touchstone port\s*([0-9]+)\s*=\s*(CST MWS port|CST DS port)\s*([0-9]+|Zmin|Zmax)\s*\(\"(.*)\"\)(\s*mode\s*([0-9]+))?.*
! Touchstone port assignment:
! Touchstone port 1 = CST MWS port 1 ("")
! Touchstone port 2 = CST MWS port 2 ("")
# GHz S RI R 50
12.66                0.495385118     0.838897301   0.000326045678 -0.000227299629   0.000326045678 -0.000227299628      0.495640448     0.838867458
12.660028            0.495878743     0.838580426   0.000326463203 -0.000227895358   0.000326463203 -0.000227895358       0.49613131     0.838552189
12.660056             0.49637262     0.838262958   0.000326881176 -0.000228492693   0.000326881176 -0.000228492693      0.496622303     0.838236399
12.660084            0.496866742     0.837944898   0.000327299588 -0.000229091643   0.000327299588 -0.000229091643      0.497113471     0.837920062
12.660112              0.4973611      0.83762625   0.000327718429 -0.000229692217   0.000327718429 -0.000229692216      0.497604858     0.837603153
12.66014             0.497855688     0.837307017    0.00032813769 -0.000230294422    0.00032813769 -0.000230294421      0.498096507     0.837285645
12.660168            0.498350506     0.836987199    0.00032855737 -0.000230898263    0.00032855737 -0.000230898263       0.49858842     0.836967536
12.660196            0.498845558      0.83666679   0.000328977475 -0.000231503744   0.000328977475 -0.000231503743      0.499080567     0.836648843
12.660224            0.499340843     0.836345791   0.000329398004 -0.000232110867   0.000329398004 -0.000232110867      0.499572946     0.836329564
12.660252            0.499836363       0.8360242   0.000329818956 -0.000232719639   0.000329818956 -0.000232719639      0.500065559     0.836009699
12.66028             0.500332117     0.835702015   0.000330240332 -0.000233330063   0.000330240332 -0.000233330063      0.500558405     0.835689245
12.660308            0.500828104     0.835379237   0.000330662131 -0.000233942145   0.000330662131 -0.000233942145      0.501051484     0.835368203
12.660336            0.501324325     0.835055863   0.000331084352 -0.000234555889   0.000331084352 -0.000234555889      0.501544795     0.835046571
12.660364            0.501820779     0.834731893   0.000331506994   -0.0002351713   0.000331506994 -0.000235171299      0.502038339     0.834724348
12.660392            0.502317467     0.834407326   0.000331930058 -0.000235788382   0.000331930058 -0.000235788382      0.502532116     0.834401533
12.66042             0.502814388      0.83408216   0.000332353542 -0.000236407141   0.000332353542 -0.000236407141      0.503026125     0.834078125
12.660448            0.503311541     0.833756394   0.000332777446 -0.000237027582   0.000332777446 -0.000237027581      0.503520366     0.833754122
12.660476            0.503808928     0.833430028    0.00033320177 -0.000237649708    0.00033320177 -0.000237649708       0.50401484     0.833429525
12.660504            0.504306547      0.83310306   0.000333626513 -0.000238273525   0.000333626513 -0.000238273525      0.504509546      0.83310433
12.660532            0.504804399     0.832775489   0.000334051673 -0.000238899038   0.000334051673 -0.000238899038      0.505004483     0.832778539
12.66056             0.505302484     0.832447314   0.000334477252 -0.000239526252   0.000334477252 -0.000239526252      0.505499652     0.832452148
12.660588            0.505800801     0.832118534   0.000334903247 -0.000240155171   0.000334903247 -0.000240155171      0.505995053     0.832125158
12.660616             0.50629935     0.831789147   0.000335329659   -0.0002407858    0.00033532966   -0.0002407858      0.506490686     0.831797567
12.660644            0.506798131     0.831459153   0.000335756488 -0.000241418145   0.000335756488 -0.000241418145      0.506986549     0.831469375
12.660672            0.507297144     0.831128551   0.000336183731  -0.00024205221   0.000336183731  -0.00024205221      0.507482644     0.831140579
12.6607              0.507796388     0.830797339   0.000336611389    -0.000242688   0.000336611389    -0.000242688       0.50797897     0.830811179
12.660728            0.508295865     0.830465517   0.000337039461  -0.00024332552   0.000337039461  -0.00024332552      0.508475527     0.830481173
12.660756            0.508795573     0.830133083   0.000337467946 -0.000243964775   0.000337467946 -0.000243964775      0.508972315     0.830150562
12.660784            0.509295512     0.829800035   0.000337896844  -0.00024460577   0.000337896845  -0.00024460577      0.509469333     0.829819343
12.660812            0.509795682     0.829466374   0.000338326155  -0.00024524851   0.000338326155  -0.00024524851      0.509966582     0.829487515
12.66084             0.510296083     0.829132097   0.000338755877    -0.000245893   0.000338755877    -0.000245893      0.510464061     0.829155078
12.660868            0.510796715     0.828797204   0.000339186009 -0.000246539245   0.000339186009 -0.000246539245       0.51096177     0.828822029
12.660896            0.511297578     0.828461694   0.000339616552  -0.00024718725   0.000339616552  -0.00024718725      0.511459709     0.828488369
12.660924            0.511798671     0.828125565   0.000340047504  -0.00024783702   0.000340047504  -0.00024783702      0.511957879     0.828154096
12.660952            0.512299994     0.827788816   0.000340478864  -0.00024848856   0.000340478864  -0.00024848856      0.512456278     0.827819208
12.66098             0.512801548     0.827451446   0.000340910633 -0.000249141875   0.000340910633 -0.000249141875      0.512954906     0.827483706
12.661008            0.513303332     0.827113454   0.000341342809  -0.00024979697   0.000341342809  -0.00024979697      0.513453764     0.827147586
12.661036            0.513805346     0.826774839   0.000341775391 -0.000250453851   0.000341775391 -0.000250453851      0.513952851     0.826810849
12.661064            0.514307589       0.8264356    0.00034220838 -0.000251112523    0.00034220838 -0.000251112522      0.514452167     0.826473494
12.661092            0.514810062     0.826095735   0.000342641773 -0.000251772989   0.000342641773 -0.000251772989      0.514951713     0.826135518
12.66112             0.515312764     0.825755244   0.000343075571 -0.000252435257   0.000343075571 -0.000252435257      0.515451487     0.825796922
12.661148            0.515815695     0.825414125   0.000343509773 -0.000253099331   0.000343509773  -0.00025309933      0.515951489     0.825457703
12.661176            0.516318856     0.825072377   0.000343944377 -0.000253765215   0.000343944377 -0.000253765215       0.51645172     0.825117861
12.661204            0.516822245     0.824729998   0.000344379383 -0.000254432916   0.000344379383 -0.000254432916      0.516952179     0.824777394
12.661232            0.517325863     0.824386989   0.000344814791 -0.000255102439   0.000344814791 -0.000255102438      0.517452867     0.824436302
12.66126             0.517829709     0.824043347   0.000345250599 -0.000255773788   0.000345250599 -0.000255773788      0.517953782     0.824094584
12.661288            0.518333784     0.823699071   0.000345686807 -0.000256446969   0.000345686807 -0.000256446969      0.518454925     0.823752237
12.661316            0.518838086     0.823354161   0.000346123414 -0.000257121987   0.000346123414 -0.000257121987      0.518956296     0.823409261
12.661344            0.519342617     0.823008615   0.000346560419 -0.000257798848   0.000346560419 -0.000257798848      0.519457894     0.823065655
12.661372            0.519847375     0.822662431   0.000346997821 -0.000258477557   0.000346997821 -0.000258477556      0.519959719     0.822721417
12.6614              0.520352361      0.82231561    0.00034743562 -0.000259158118    0.00034743562 -0.000259158118      0.520461772     0.822376547
12.661428            0.520857575     0.821968149   0.000347873814 -0.000259840538   0.000347873814 -0.000259840538      0.520964051     0.822031043
12.661456            0.521363015     0.821620047   0.000348312403 -0.000260524822   0.000348312403 -0.000260524822      0.521466557     0.821684905
12.661484            0.521868683     0.821271304   0.000348751385 -0.000261210975   0.000348751385 -0.000261210975      0.521969289      0.82133813
12.661512            0.522374577     0.820921917   0.000349190761 -0.000261899002   0.000349190761 -0.000261899002      0.522472248     0.820990718
12.66154             0.522880698     0.820571887   0.000349630529 -0.000262588909   0.000349630529 -0.000262588909      0.522975433     0.820642667
12.661568            0.523387045      0.82022121   0.000350070688 -0.000263280702   0.000350070688 -0.000263280701      0.523478843     0.820293977
12.661596            0.523893619     0.819869888   0.000350511238 -0.000263974385   0.000350511238 -0.000263974384       0.52398248     0.819944647
12.661624            0.524400418     0.819517917   0.000350952177 -0.000264669963   0.000350952177 -0.000264669963      0.524486342     0.819594674
12.661652            0.524907444     0.819165298   0.000351393504 -0.000265367444   0.000351393504 -0.000265367444       0.52499043     0.819244058
12.66168             0.525414695     0.818812029   0.000351835219 -0.000266066831   0.000351835219 -0.000266066831      0.525494742     0.818892798
12.661708            0.525922171     0.818458108   0.000352277321 -0.000266768131   0.000352277321 -0.000266768131       0.52599928     0.818540892
12.661736            0.526429872     0.818103535   0.000352719808 -0.000267471348   0.000352719808 -0.000267471348      0.526504042      0.81818834
12.661764            0.526937799     0.817748307    0.00035316268  -0.00026817649    0.00035316268 -0.000268176489      0.527009029     0.817835139
12.661792             0.52744595     0.817392425   0.000353605936 -0.000268883559   0.000353605936 -0.000268883559       0.52751424      0.81748129
12.66182             0.527954326     0.817035887   0.000354049575 -0.000269592564   0.000354049575 -0.000269592564      0.528019676      0.81712679
12.661848            0.528462926     0.816678691   0.000354493596 -0.000270303508   0.000354493596 -0.000270303508      0.528525335     0.816771639
12.661876            0.528971751     0.816320837   0.000354937997 -0.000271016398   0.000354937997 -0.000271016398      0.529031219     0.816415835
12.661904            0.529480799     0.815962323   0.000355382778 -0.000271731239   0.000355382778 -0.000271731239      0.529537325     0.816059377
12.661932            0.529990071     0.815603148   0.000355827938 -0.000272448037   0.000355827938 -0.000272448037      0.530043656     0.815702264
12.66196             0.530499566     0.815243311   0.000356273476 -0.000273166798   0.000356273476 -0.000273166797      0.530550209     0.815344494
12.661988            0.531009285      0.81488281   0.000356719391 -0.000273887526   0.000356719391 -0.000273887526      0.531056985     0.814986068
12.662016            0.531519227     0.814521644   0.000357165681 -0.000274610228   0.000357165681 -0.000274610228      0.531563984     0.814626982
12.662044            0.532029391     0.814159813   0.000357612346 -0.000275334909   0.000357612346 -0.000275334909      0.532071205     0.814267236
12.662072            0.532539778     0.813797314   0.000358059384 -0.000276061576   0.000358059384 -0.000276061575      0.532578649     0.813906829
12.6621              0.533050388     0.813434147   0.000358506795 -0.000276790233   0.000358506795 -0.000276790232      0.533086314      0.81354576
12.662128            0.533561219      0.81307031   0.000358954578 -0.000277520886   0.000358954578 -0.000277520886      0.533594202     0.813184027
12.662156            0.534072273     0.812705803   0.000359402731 -0.000278253542   0.000359402731 -0.000278253542      0.534102311      0.81282163
12.662184            0.534583548     0.812340623   0.000359851252 -0.000278988205   0.000359851252 -0.000278988205      0.534610641     0.812458566
12.662212            0.535095044      0.81197477   0.000360300142 -0.000279724883   0.000360300143 -0.000279724882      0.535119193     0.812094834
12.66224             0.535606762     0.811608243   0.000360749399  -0.00028046358   0.000360749399 -0.000280463579      0.535627965     0.811730435
12.662268            0.536118701     0.811241039   0.000361199022 -0.000281204302   0.000361199022 -0.000281204301      0.536136958     0.811365365
12.662296             0.53663086     0.810873159    0.00036164901 -0.000281947055    0.00036164901 -0.000281947055      0.536646172     0.810999624
12.662324             0.53714324       0.8105046   0.000362099361 -0.000282691845   0.000362099361 -0.000282691845      0.537155606     0.810633212
12.662352             0.53765584     0.810135361   0.000362550074 -0.000283438678   0.000362550074 -0.000283438677      0.537665259     0.810266125
12.66238              0.53816866     0.809765442   0.000363001148 -0.000284187559   0.000363001148 -0.000284187559      0.538175133     0.809898364
12.662408            0.538681699      0.80939484   0.000363452583 -0.000284938495   0.000363452583 -0.000284938495      0.538685226     0.809529927
12.662436            0.539194958     0.809023555   0.000363904376 -0.000285691492   0.000363904376 -0.000285691492      0.539195538     0.809160812
12.662464            0.539708437     0.808651586   0.000364356526 -0.000286446555   0.000364356526 -0.000286446554      0.539706069     0.808791019
12.662492            0.540222134      0.80827893   0.000364809033  -0.00028720369   0.000364809033  -0.00028720369      0.540216819     0.808420546
12.66252              0.54073605     0.807905587   0.000365261895 -0.000287962903   0.000365261895 -0.000287962903      0.540727787     0.808049392
12.662548            0.541250184     0.807531556   0.000365715111 -0.000288724201   0.000365715111 -0.000288724201      0.541238974     0.807677556
12.662576            0.541764537     0.807156835   0.000366168679 -0.000289487589   0.000366168679 -0.000289487588      0.541750379     0.807305036
12.662604            0.542279107     0.806781423   0.000366622599 -0.000290253073   0.000366622599 -0.000290253072      0.542262001     0.806931832
12.662632            0.542793895     0.806405319   0.000367076868 -0.000291020659   0.000367076868 -0.000291020659      0.542773841     0.806557941
12.66266               0.5433089     0.806028521   0.000367531486 -0.000291790354   0.000367531486 -0.000291790353      0.543285898     0.806183363
12.662688            0.543824123     0.805651029   0.000367986452 -0.000292562162   0.000367986452 -0.000292562162      0.543798172     0.805808096
12.662716            0.544339562      0.80527284   0.000368441763 -0.000293336092   0.000368441763 -0.000293336091      0.544310663     0.805432139
12.662744            0.544855218     0.804893954   0.000368897419 -0.000294112148   0.000368897419 -0.000294112147      0.544823371     0.805055491
12.662772             0.54537109     0.804514369   0.000369353419 -0.000294890336   0.000369353419 -0.000294890336      0.545336294     0.804678151
12.6628              0.545887178     0.804134083    0.00036980976 -0.000295670663    0.00036980976 -0.000295670663      0.545849433     0.804300117
12.662828            0.546403482     0.803753097   0.000370266442 -0.000296453135   0.000370266442 -0.000296453135      0.546362788     0.803921387
12.662856            0.546920001     0.803371408   0.000370723463 -0.000297237758   0.000370723463 -0.000297237758      0.546876359     0.803541962
12.662884            0.547436736     0.802989015   0.000371180822 -0.000298024539   0.000371180822 -0.000298024538      0.547390144     0.803161838
12.662912            0.547953685     0.802605917   0.000371638518 -0.000298813482   0.000371638518 -0.000298813482      0.547904145     0.802781016
12.66294             0.548470849     0.802222112   0.000372096548 -0.000299604596   0.000372096548 -0.000299604596      0.548418359     0.802399494
12.662968            0.548988227       0.8018376   0.000372554912 -0.000300397885   0.000372554912 -0.000300397885      0.548932789      0.80201727
12.662996            0.549505819     0.801452378   0.000373013608 -0.000301193357   0.000373013608 -0.000301193356      0.549447432     0.801634343
12.663024            0.550023625     0.801066446   0.000373472635 -0.000301991017   0.000373472635 -0.000301991016      0.549962288     0.801250712
12.663052            0.550541645     0.800679802   0.000373931991 -0.000302790871   0.000373931991 -0.000302790871      0.550477359     0.800866376
12.66308             0.551059877     0.800292445   0.000374391675 -0.000303592927   0.000374391675 -0.000303592926      0.550992642     0.800481332
12.663108            0.551578322     0.799904373   0.000374851684  -0.00030439719   0.000374851684 -0.000304397189      0.551508138     0.800095581
12.663136             0.55209698     0.799515586   0.000375312019 -0.000305203666   0.000375312019 -0.000305203666      0.552023847     0.799709121
12.663164             0.55261585     0.799126081   0.000375772676 -0.000306012363   0.000375772676 -0.000306012363      0.552539768     0.799321949
12.663192            0.553134932     0.798735859   0.000376233656 -0.000306823286   0.000376233656 -0.000306823286        0.5530559     0.798934066
12.66322             0.553654225     0.798344916   0.000376694955 -0.000307636442   0.000376694955 -0.000307636442      0.553572245     0.798545469
12.663248             0.55417373     0.797953252   0.000377156573 -0.000308451837   0.000377156573 -0.000308451837      0.554088801     0.798156158
12.663276            0.554693446     0.797560866   0.000377618507 -0.000309269478   0.000377618507 -0.000309269478      0.554605568     0.797766131
12.663304            0.555213372     0.797167756   0.000378080757 -0.000310089371   0.000378080757 -0.000310089371      0.555122545     0.797375386
12.663332            0.555733509     0.796773921   0.000378543321 -0.000310911523   0.000378543321 -0.000310911522      0.555639733     0.796983923
12.66336             0.556253855      0.79637936   0.000379006197 -0.000311735939   0.000379006197 -0.000311735939      0.556157131     0.796591739
12.663388            0.556774412      0.79598407   0.000379469383 -0.000312562628   0.000379469383 -0.000312562627      0.556674739     0.796198835
12.663416            0.557295178     0.795588052   0.000379932878 -0.000313391594   0.000379932878 -0.000313391594      0.557192557     0.795805208
12.663444            0.557816152     0.795191303    0.00038039668 -0.000314222845    0.00038039668 -0.000314222845      0.557710584     0.795410856
12.663472            0.558337336     0.794793822   0.000380860788 -0.000315056388   0.000380860788 -0.000315056387      0.558228819      0.79501578
12.6635              0.558858728     0.794395608   0.000381325199 -0.000315892228   0.000381325199 -0.000315892228      0.558747263     0.794619976
12.663528            0.559380328     0.793996659   0.000381789913 -0.000316730373   0.000381789913 -0.000316730372      0.559265915     0.794223445
12.663556            0.559902135     0.793596974   0.000382254927 -0.000317570828   0.000382254927 -0.000317570828      0.559784776     0.793826184
12.663584             0.56042415     0.793196552   0.000382720239 -0.000318413602   0.000382720239 -0.000318413602      0.560303843     0.793428193
12.663612            0.560946372     0.792795392   0.000383185849   -0.0003192587   0.000383185849   -0.0003192587      0.560823118     0.793029469
12.66364             0.561468801     0.792393491   0.000383651753 -0.000320106129   0.000383651753 -0.000320106128        0.5613426     0.792630012
12.663668            0.561991436     0.791990849   0.000384117951 -0.000320955895   0.000384117951 -0.000320955895      0.561862289      0.79222982
12.663696            0.562514277     0.791587464   0.000384584441 -0.000321808007   0.000384584441 -0.000321808006      0.562382183     0.791828891
12.663724            0.563037324     0.791183334    0.00038505122 -0.000322662469    0.00038505122 -0.000322662469      0.562902284     0.791427226
12.663752            0.563560576     0.790778459   0.000385518287 -0.000323519289   0.000385518287 -0.000323519289       0.56342259     0.791024821
12.66378             0.564084033     0.790372838    0.00038598564 -0.000324378474    0.00038598564 -0.000324378474      0.563943101     0.790621676
12.663808            0.564607695     0.789966467   0.000386453278 -0.000325240031   0.000386453278 -0.000325240031      0.564463818     0.790217789
12.663836             0.56513156     0.789559348   0.000386921198 -0.000326103966   0.000386921198 -0.000326103966      0.564984738     0.789813159
12.663864             0.56565563     0.789151476   0.000387389398 -0.000326970286   0.000387389398 -0.000326970286      0.565505863     0.789407785
12.663892            0.566179903     0.788742853   0.000387857878 -0.000327838998   0.000387857878 -0.000327838998      0.566027192     0.789001665
12.66392              0.56670438     0.788333475   0.000388326633  -0.00032871011   0.000388326633 -0.000328710109      0.566548724     0.788594797
12.663948            0.567229059     0.787923342   0.000388795664 -0.000329583627   0.000388795664 -0.000329583626       0.56707046     0.788187181
12.663976             0.56775394     0.787512453   0.000389264968 -0.000330459556   0.000389264968 -0.000330459556      0.567592398     0.787778815
12.664004            0.568279024     0.787100805   0.000389734542 -0.000331337906   0.000389734542 -0.000331337905      0.568114538     0.787369698
12.664032            0.568804309     0.786688398   0.000390204385 -0.000332218682   0.000390204385 -0.000332218681       0.56863688     0.786959827
12.66406             0.569329795     0.786275229   0.000390674496 -0.000333101891   0.000390674496 -0.000333101891      0.569159425     0.786549203
12.664088            0.569855483     0.785861298   0.000391144871 -0.000333987541   0.000391144871 -0.000333987541       0.56968217     0.786137823
12.664116            0.570381371     0.785446604   0.000391615509 -0.000334875639   0.000391615509 -0.000334875639      0.570205116     0.785725685
12.664144            0.570907458     0.785031144   0.000392086408 -0.000335766191   0.000392086408 -0.000335766191      0.570728263      0.78531279
12.664172            0.571433746     0.784614918   0.000392557566 -0.000336659206   0.000392557566 -0.000336659205       0.57125161     0.784899134
12.6642              0.571960233     0.784197923    0.00039302898 -0.000337554688    0.00039302898 -0.000337554688      0.571775157     0.784484718
12.664228            0.572486919     0.783780159    0.00039350065 -0.000338452647    0.00039350065 -0.000338452647      0.572298903     0.784069538
12.664256            0.573013804     0.783361624   0.000393972571 -0.000339353089   0.000393972571 -0.000339353088      0.572822848     0.783653595
12.664284            0.573540887     0.782942317   0.000394444744  -0.00034025602   0.000394444744  -0.00034025602      0.573346992     0.783236886
12.664312            0.574068167     0.782522236   0.000394917164 -0.000341161449   0.000394917164 -0.000341161449      0.573871334      0.78281941
12.66434             0.574595645     0.782101379   0.000395389831 -0.000342069383   0.000395389831 -0.000342069383      0.574395874     0.782401165
12.664368             0.57512332     0.781679746   0.000395862742 -0.000342979828   0.000395862742 -0.000342979828      0.574920611     0.781982151
12.664396            0.575651191     0.781257335   0.000396335895 -0.000343892792   0.000396335895 -0.000343892791      0.575445546     0.781562366
12.664424            0.576179258     0.780834144   0.000396809287 -0.000344808282   0.000396809287 -0.000344808281      0.575970677     0.781141808
12.664452            0.576707522     0.780410172   0.000397282916 -0.000345726305   0.000397282917 -0.000345726305      0.576496004     0.780720475
12.66448              0.57723598     0.779985418   0.000397756781 -0.000346646869   0.000397756781 -0.000346646868      0.577021527     0.780298368
12.664508            0.577764633     0.779559879   0.000398230879 -0.000347569981   0.000398230879  -0.00034756998      0.577547246     0.779875483
12.664536            0.578293481     0.779133556   0.000398705208 -0.000348495647   0.000398705208 -0.000348495647       0.57807316      0.77945182
12.664564            0.578822523     0.778706445   0.000399179764 -0.000349423877   0.000399179764 -0.000349423877      0.578599268     0.779027377
12.664592            0.579351759     0.778278546   0.000399654547 -0.000350354676   0.000399654547 -0.000350354676      0.579125571     0.778602152
12.66462             0.579881187     0.777849857   0.000400129554 -0.000351288053   0.000400129554 -0.000351288053      0.579652067     0.778176145
12.664648            0.580410809     0.777420377   0.000400604782 -0.000352224015   0.000400604782 -0.000352224014      0.580178757     0.777749353
12.664676            0.580940622     0.776990104   0.000401080229 -0.000353162568   0.000401080229 -0.000353162568       0.58070564     0.777321776
12.664704            0.581470628     0.776559037   0.000401555892 -0.000354103721   0.000401555893 -0.000354103721      0.581232715     0.776893411
12.664732            0.582000825     0.776127175    0.00040203177 -0.000355047481    0.00040203177 -0.000355047481      0.581759982     0.776464258
12.66476             0.582531213     0.775694515    0.00040250786 -0.000355993856    0.00040250786 -0.000355993855      0.582287441     0.776034315
12.664788            0.583061791     0.775261056    0.00040298416 -0.000356942852    0.00040298416 -0.000356942852      0.582815091      0.77560358
12.664816             0.58359256     0.774826797   0.000403460666 -0.000357894479   0.000403460666 -0.000357894478      0.583342932     0.775172052
12.664844            0.584123518     0.774391737   0.000403937377 -0.000358848742   0.000403937377 -0.000358848741      0.583870964     0.774739729
12.664872            0.584654666     0.773955873   0.000404414289  -0.00035980565   0.000404414289 -0.000359805649      0.584399185     0.774306611
12.6649              0.585186002     0.773519205   0.000404891402  -0.00036076521   0.000404891402 -0.000360765209      0.584927596     0.773872695
12.664928            0.585717527     0.773081731   0.000405368711  -0.00036172743   0.000405368711 -0.000361727429      0.585456196     0.773437979
12.664956            0.586249239     0.772643449   0.000405846215 -0.000362692317   0.000405846215 -0.000362692317      0.585984984     0.773002464
12.664984            0.586781139     0.772204358    0.00040632391  -0.00036365988    0.00040632391 -0.000363659879      0.586513961     0.772566146
12.665012            0.587313225     0.771764456   0.000406801795 -0.000364630125   0.000406801795 -0.000364630125      0.587043125     0.772129025
12.66504             0.587845498     0.771323742   0.000407279867 -0.000365603061   0.000407279867 -0.000365603061      0.587572476     0.771691099
12.665068            0.588377957     0.770882215   0.000407758123 -0.000366578695   0.000407758123 -0.000366578695      0.588102015     0.771252366
12.665096            0.588910601     0.770439872    0.00040823656 -0.000367557035    0.00040823656 -0.000367557035      0.588631739     0.770812825
12.665124            0.589443431     0.769996713   0.000408715176 -0.000368538089   0.000408715176 -0.000368538089       0.58916165     0.770372475
12.665152            0.589976444     0.769552735   0.000409193968 -0.000369521865   0.000409193968 -0.000369521865      0.589691745     0.769931314
12.66518             0.590509642     0.769107937   0.000409672934  -0.00037050837   0.000409672934 -0.000370508369      0.590222026      0.76948934
12.665208            0.591043024     0.768662319    0.00041015207 -0.000371497612    0.00041015207 -0.000371497611      0.590752491     0.769046553
12.665236            0.591576588     0.768215877   0.000410631375 -0.000372489598   0.000410631375 -0.000372489598       0.59128314     0.768602949
12.665264            0.592110335     0.767768611   0.000411110844 -0.000373484338   0.000411110844 -0.000373484338      0.591813972     0.768158529
12.665292            0.592644264      0.76732052   0.000411590476 -0.000374481839   0.000411590476 -0.000374481839      0.592344988      0.76771329
12.66532             0.593178374       0.7668716   0.000412070268 -0.000375482108   0.000412070268 -0.000375482108      0.592876185     0.767267231
12.665348            0.593712666     0.766421852   0.000412550216 -0.000376485154   0.000412550216 -0.000376485154      0.593407565      0.76682035
12.665376            0.594247138     0.765971274   0.000413030319 -0.000377490985   0.000413030319 -0.000377490984      0.593939127     0.766372646
12.665404             0.59478179     0.765519863   0.000413510572 -0.000378499608   0.000413510572 -0.000378499607      0.594470869     0.765924117