! TOUCHSTONE file generated by CST MICROWAVE STUDIO
! Date and time: Wed Jul 31 15:13:41 2024
! Project name: WaveGuide_BPF-Ver4.1_U-shape_Ku_T3_C4_CWA_2.cst
! Parameters = {cavity_h=16; cavity_l0=10; cavity_l1=15.2036; cavity_l2=16.8842; cavity_l3=17.1451; cavity_l4=17.273; cavity_l5=17.1392; cavity_l6=17.5838; cavity_r=2.5; cavity_screw_l=0.5; cavity_screw_r=1.5; cavity_w=8; iris_h00=0; iris_h01=8.8145; iris_h112=0; iris_h12=5.5901; iris_h211=3.6514; iris_h23=5.1928; iris_h310=3.9608; iris_h34=5.0721; iris_h45=4.9369; iris_h49=4.6217; iris_h56=4.811; iris_h58=4.4378; iris_h67=6.5731; iris_rx=0.1; iris_screw_l=0.5; iris_screw_r=1.5; iris_shift00=0; iris_shift112=0; iris_shift211=3.5; iris_shift310=0; iris_shift49=0; iris_shift58=3.5; iris_shift67=3.5; iris_tx=4.5; iris_tz=4.5; iris_w00=0; iris_w112=0; iris_w211=4; iris_w310=3.9608; iris_w49=4.6217; iris_w58=4; iris_w67=4; mesh_cavity=5; mesh_iris=7; mesh_screw=7; order=12; reset_all=0; sigma=4.8e+07}
! Header version: 2018
! Port assignment regex: !\s*Touchstone port\s*([0-9]+)\s*=\s*(CST MWS port|CST DS port)\s*([0-9]+|Zmin|Zmax)\s*\(\"(.*)\"\)(\s*mode\s*([0-9]+))?.*
! Touchstone port assignment:
! Touchstone port 1 = CST MWS port 1 ("")
! Touchstone port 2 = CST MWS port 2 ("")
# GHz S RI R 50
12.66                0.329851825     0.922697495    0.00031750099 -0.000142136443    0.00031750099 -0.000142136443      0.330082804     0.922749291
12.660028            0.330271602     0.922530106   0.000317995137 -0.000142545725   0.000317995138 -0.000142545725      0.330499975     0.922582891
12.660056            0.330691669     0.922362365   0.000318490146  -0.00014295623   0.000318490146  -0.00014295623      0.330917428     0.922416144
12.660084             0.33111202     0.922194272   0.000318986017 -0.000143367959   0.000318986017 -0.000143367959       0.33133516     0.922249051
12.660112             0.33153265      0.92202583   0.000319482753 -0.000143780915   0.000319482753 -0.000143780916      0.331753169     0.922081612
12.66014             0.331953555     0.921857038   0.000319980357 -0.000144195102   0.000319980357 -0.000144195102      0.332171451     0.921913826
12.660168            0.332374734     0.921687896   0.000320478831 -0.000144610524   0.000320478831 -0.000144610524      0.332590009     0.921745694
12.660196            0.332796192     0.921518403   0.000320978175 -0.000145027184   0.000320978175 -0.000145027184      0.333008843     0.921577213
12.660224            0.333217928     0.921348557    0.00032147839 -0.000145445088    0.00032147839 -0.000145445088      0.333427953     0.921408384
12.660252            0.333639944     0.921178358   0.000321979478 -0.000145864238   0.000321979478 -0.000145864238      0.333847341     0.921239205
12.66028             0.334062238     0.921007805   0.000322481441  -0.00014628464   0.000322481441  -0.00014628464      0.334267006     0.921069676
12.660308            0.334484812     0.920836897   0.000322984279 -0.000146706298   0.000322984279 -0.000146706298      0.334686948     0.920899796
12.660336            0.334907666     0.920665634   0.000323487995 -0.000147129215   0.000323487996 -0.000147129215      0.335107168     0.920729565
12.660364            0.335330799     0.920494014    0.00032399259 -0.000147553395    0.00032399259 -0.000147553395      0.335527666      0.92055898
12.660392            0.335754213     0.920322038   0.000324498066 -0.000147978843   0.000324498066 -0.000147978843      0.335948443     0.920388043
12.66042             0.336177907     0.920149704   0.000325004423 -0.000148405563   0.000325004423 -0.000148405563      0.336369498     0.920216751
12.660448            0.336601882     0.919977011   0.000325511663 -0.000148833559   0.000325511663 -0.000148833559      0.336790832     0.920045105
12.660476            0.337026138     0.919803959   0.000326019788 -0.000149262835   0.000326019788 -0.000149262835      0.337212445     0.919873103
12.660504            0.337450675     0.919630548     0.0003265288 -0.000149693395     0.0003265288 -0.000149693395      0.337634337     0.919700746
12.660532            0.337875493     0.919456775   0.000327038699 -0.000150125244   0.000327038699 -0.000150125244      0.338056509     0.919528031
12.66056             0.338300593     0.919282642   0.000327549487 -0.000150558386   0.000327549487 -0.000150558386      0.338478961     0.919354959
12.660588            0.338725975     0.919108146   0.000328061166 -0.000150992824   0.000328061166 -0.000150992824      0.338901692     0.919181528
12.660616             0.33915164     0.918933287   0.000328573737 -0.000151428564   0.000328573737 -0.000151428564      0.339324705     0.919007738
12.660644            0.339577587     0.918758064   0.000329087202 -0.000151865609   0.000329087202 -0.000151865609      0.339747997     0.918833588
12.660672            0.340003816     0.918582477   0.000329601562 -0.000152303964   0.000329601562 -0.000152303964      0.340171571     0.918659077
12.6607              0.340430329     0.918406525   0.000330116818 -0.000152743633   0.000330116818 -0.000152743634      0.340595426     0.918484205
12.660728            0.340857125     0.918230207   0.000330632973 -0.000153184621   0.000330632973 -0.000153184621      0.341019562     0.918308971
12.660756            0.341284204     0.918053521   0.000331150027 -0.000153626931   0.000331150027 -0.000153626931      0.341443979     0.918133374
12.660784            0.341711567     0.917876469   0.000331667982 -0.000154070568   0.000331667982 -0.000154070568      0.341868679     0.917957413
12.660812            0.342139214     0.917699048   0.000332186839 -0.000154515536   0.000332186839 -0.000154515536       0.34229366     0.917781088
12.66084             0.342567146     0.917521258   0.000332706601  -0.00015496184   0.000332706601 -0.000154961841      0.342718925     0.917604397
12.660868            0.342995362     0.917343098   0.000333227268 -0.000155409485   0.000333227268 -0.000155409485      0.343144471     0.917427341
12.660896            0.343423862     0.917164567   0.000333748842 -0.000155858473   0.000333748842 -0.000155858474      0.343570301     0.917249917
12.660924            0.343852648     0.916985665   0.000334271324 -0.000156308811   0.000334271324 -0.000156308811      0.343996414     0.917072127
12.660952            0.344281719      0.91680639   0.000334794717 -0.000156760502   0.000334794717 -0.000156760502       0.34442281     0.916893967
12.66098             0.344711076     0.916626743   0.000335319021 -0.000157213551   0.000335319021 -0.000157213551       0.34484949     0.916715439
12.661008            0.345140718     0.916446722   0.000335844237 -0.000157667962   0.000335844237 -0.000157667962      0.345276454     0.916536541
12.661036            0.345570647     0.916266326   0.000336370368  -0.00015812374   0.000336370368  -0.00015812374      0.345703702     0.916357272
12.661064            0.346000862     0.916085555   0.000336897415 -0.000158580889   0.000336897415 -0.000158580889      0.346131234     0.916177631
12.661092            0.346431363     0.915904408    0.00033742538 -0.000159039413    0.00033742538 -0.000159039413      0.346559052     0.915997619
12.66112             0.346862152     0.915722883   0.000337954263 -0.000159499318   0.000337954263 -0.000159499318      0.346987154     0.915817233
12.661148            0.347293227     0.915540981   0.000338484067 -0.000159960608   0.000338484067 -0.000159960608      0.347415541     0.915636474
12.661176             0.34772459       0.9153587   0.000339014792 -0.000160423287   0.000339014792 -0.000160423287      0.347844214      0.91545534
12.661204             0.34815624      0.91517604   0.000339546441  -0.00016088736   0.000339546441  -0.00016088736      0.348273173      0.91527383
12.661232            0.348588179        0.914993   0.000340079015 -0.000161352832   0.000340079015 -0.000161352832      0.348702418     0.915091945
12.66126             0.349020405     0.914809579   0.000340612515 -0.000161819707   0.000340612515 -0.000161819707      0.349131949     0.914909682
12.661288             0.34945292     0.914625776   0.000341146943 -0.000162287989   0.000341146943 -0.000162287989      0.349561766     0.914727042
12.661316            0.349885724      0.91444159     0.0003416823 -0.000162757684     0.0003416823 -0.000162757684       0.34999187     0.914544023
12.661344            0.350318816     0.914257021   0.000342218588 -0.000163228796   0.000342218588 -0.000163228796      0.350422262     0.914360624
12.661372            0.350752198     0.914072068   0.000342755809 -0.000163701329   0.000342755809  -0.00016370133       0.35085294     0.914176846
12.6614              0.351185869     0.913886729   0.000343293963  -0.00016417529   0.000343293963  -0.00016417529      0.351283907     0.913992686
12.661428             0.35161983     0.913701005   0.000343833052 -0.000164650681   0.000343833052 -0.000164650681      0.351715161     0.913808145
12.661456            0.352054081     0.913514894   0.000344373079 -0.000165127508   0.000344373079 -0.000165127508      0.352146703     0.913623221
12.661484            0.352488622     0.913328396   0.000344914044 -0.000165605775   0.000344914044 -0.000165605776      0.352578533     0.913437913
12.661512            0.352923454     0.913141509   0.000345455948 -0.000166085489   0.000345455948 -0.000166085489      0.353010653     0.913252221
12.66154             0.353358576     0.912954233   0.000345998794 -0.000166566652   0.000345998794 -0.000166566652      0.353443061     0.913066145
12.661568            0.353793989     0.912766566   0.000346542583  -0.00016704927   0.000346542583  -0.00016704927      0.353875758     0.912879682
12.661596            0.354229694     0.912578509   0.000347087316 -0.000167533348   0.000347087316 -0.000167533348      0.354308744     0.912692832
12.661624             0.35466569     0.912390061   0.000347632994  -0.00016801889   0.000347632994  -0.00016801889       0.35474202     0.912505595
12.661652            0.355101978      0.91220122   0.000348179621 -0.000168505902   0.000348179621 -0.000168505902      0.355175587      0.91231797
12.66168             0.355538558     0.912011985   0.000348727196 -0.000168994388   0.000348727196 -0.000168994388      0.355609443     0.912129955
12.661708             0.35597543     0.911822356   0.000349275721 -0.000169484353   0.000349275721 -0.000169484353      0.356043589      0.91194155
12.661736            0.356412595     0.911632332   0.000349825198 -0.000169975803   0.000349825198 -0.000169975803      0.356478027     0.911752755
12.661764            0.356850052     0.911441913   0.000350375628 -0.000170468741   0.000350375628 -0.000170468741      0.356912755     0.911563567
12.661792            0.357287803     0.911251096   0.000350927014 -0.000170963173   0.000350927014 -0.000170963173      0.357347775     0.911373987
12.66182             0.357725847     0.911059882   0.000351479355 -0.000171459104   0.000351479355 -0.000171459105      0.357783086     0.911184014
12.661848            0.358164185      0.91086827   0.000352032655 -0.000171956539   0.000352032655 -0.000171956539      0.358218689     0.910993647
12.661876            0.358602817     0.910676258   0.000352586914 -0.000172455483   0.000352586914 -0.000172455483      0.358654584     0.910802884
12.661904            0.359041742     0.910483846   0.000353142133 -0.000172955941   0.000353142133 -0.000172955941      0.359090771     0.910611725
12.661932            0.359480962     0.910291033   0.000353698315 -0.000173457917   0.000353698315 -0.000173457917       0.35952725      0.91042017
12.66196             0.359920477     0.910097818   0.000354255461 -0.000173961418   0.000354255461 -0.000173961418      0.359964023     0.910228217
12.661988            0.360360287       0.9099042   0.000354813572 -0.000174466447   0.000354813572 -0.000174466447      0.360401088     0.910035865
12.662016            0.360800392     0.909710178    0.00035537265  -0.00017497301    0.00035537265  -0.00017497301      0.360838447     0.909843114
12.662044            0.361240792     0.909515752   0.000355932697 -0.000175481113   0.000355932697 -0.000175481113      0.361276099     0.909649963
12.662072            0.361681488     0.909320921   0.000356493713  -0.00017599076   0.000356493713  -0.00017599076      0.361714046     0.909456411
12.6621               0.36212248     0.909125683   0.000357055701 -0.000176501956   0.000357055701 -0.000176501956      0.362152286     0.909262457
12.662128            0.362563769     0.908930039   0.000357618661 -0.000177014706   0.000357618661 -0.000177014706      0.362590821       0.9090681
12.662156            0.363005353     0.908733986   0.000358182596 -0.000177529017   0.000358182596 -0.000177529017       0.36302965     0.908873339
12.662184            0.363447235     0.908537524   0.000358747507 -0.000178044892   0.000358747507 -0.000178044892      0.363468774     0.908678174
12.662212            0.363889413     0.908340653   0.000359313395 -0.000178562337   0.000359313395 -0.000178562338      0.363908194     0.908482603
12.66224             0.364331889     0.908143371   0.000359880262 -0.000179081358   0.000359880262 -0.000179081358      0.364347909     0.908286626
12.662268            0.364774663     0.907945677   0.000360448109  -0.00017960196   0.000360448109  -0.00017960196      0.364787919     0.908090242
12.662296            0.365217734     0.907747571   0.000361016938 -0.000180124147   0.000361016938 -0.000180124147      0.365228226      0.90789345
12.662324            0.365661103     0.907549052   0.000361586751 -0.000180647925   0.000361586751 -0.000180647925      0.365668828     0.907696248
12.662352            0.366104771     0.907350118   0.000362157549   -0.0001811733   0.000362157549   -0.0001811733      0.366109727     0.907498637
12.66238             0.366548737     0.907150769   0.000362729332 -0.000181700276   0.000362729332 -0.000181700276      0.366550923     0.907300615
12.662408            0.366993002     0.906951004   0.000363302104  -0.00018222886   0.000363302104  -0.00018222886      0.366992416     0.907102182
12.662436            0.367437566     0.906750822   0.000363875865 -0.000182759056   0.000363875865 -0.000182759056      0.367434206     0.906903336
12.662464            0.367882429     0.906550223   0.000364450618  -0.00018329087   0.000364450618  -0.00018329087      0.367876294     0.906704077
12.662492            0.368327593     0.906349204   0.000365026362 -0.000183824307   0.000365026362 -0.000183824307       0.36831868     0.906504403
12.66252             0.368773056     0.906147766     0.0003656031 -0.000184359373     0.0003656031 -0.000184359373      0.368761363     0.906304314
12.662548            0.369218819     0.905945907   0.000366180834 -0.000184896073   0.000366180834 -0.000184896073      0.369204345     0.906103809
12.662576            0.369664883     0.905743627   0.000366759565 -0.000185434413   0.000366759565 -0.000185434413      0.369647625     0.905902887
12.662604            0.370111247     0.905540924   0.000367339294 -0.000185974398   0.000367339294 -0.000185974398      0.370091205     0.905701547
12.662632            0.370557913     0.905337798   0.000367920023 -0.000186516033   0.000367920023 -0.000186516033      0.370535083     0.905499788
12.66266             0.371004879     0.905134248   0.000368501753 -0.000187059324   0.000368501753 -0.000187059324      0.370979261     0.905297609
12.662688            0.371452147     0.904930272   0.000369084487 -0.000187604277   0.000369084487 -0.000187604277      0.371423738      0.90509501
12.662716            0.371899717      0.90472587   0.000369668224 -0.000188150898   0.000369668224 -0.000188150898      0.371868516     0.904891989
12.662744            0.372347589     0.904521042   0.000370252968  -0.00018869919   0.000370252968 -0.000188699191      0.372313593     0.904688546
12.662772            0.372795763     0.904315785   0.000370838719 -0.000189249162   0.000370838719 -0.000189249162      0.372758971     0.904484679
12.6628               0.37324424     0.904110099   0.000371425478 -0.000189800817   0.000371425478 -0.000189800817       0.37320465     0.904280388
12.662828            0.373693019     0.903903983   0.000372013248 -0.000190354162   0.000372013248 -0.000190354162       0.37365063     0.904075671
12.662856            0.374142102     0.903697437    0.00037260203 -0.000190909202    0.00037260203 -0.000190909202      0.374096911     0.903870528
12.662884            0.374591488     0.903490459   0.000373191826 -0.000191465944   0.000373191826 -0.000191465944      0.374543493     0.903664958
12.662912            0.375041177     0.903283048   0.000373782636 -0.000192024392   0.000373782636 -0.000192024392      0.374990377      0.90345896
12.66294             0.375491171     0.903075203   0.000374374462 -0.000192584552   0.000374374462 -0.000192584552      0.375437563     0.903252533
12.662968            0.375941468     0.902866924   0.000374967307  -0.00019314643   0.000374967307 -0.000193146431      0.375885052     0.903045676
12.662996             0.37639207     0.902658209    0.00037556117 -0.000193710033    0.00037556117 -0.000193710033      0.376332843     0.902838388
12.663024            0.376842977     0.902449057   0.000376156055 -0.000194275365   0.000376156055 -0.000194275365      0.376780937     0.902630668
12.663052            0.377294188     0.902239468   0.000376751961 -0.000194842433   0.000376751961 -0.000194842433      0.377229334     0.902422516
12.66308             0.377745705     0.902029441   0.000377348892 -0.000195411242   0.000377348892 -0.000195411242      0.377678034     0.902213929
12.663108            0.378197527     0.901818974   0.000377946848 -0.000195981798   0.000377946848 -0.000195981798      0.378127038     0.902004908
12.663136            0.378649655     0.901608067    0.00037854583 -0.000196554108    0.00037854583 -0.000196554108      0.378576346     0.901795451
12.663164            0.379102089     0.901396718   0.000379145841 -0.000197128176   0.000379145841 -0.000197128176      0.379025958     0.901585557
12.663192            0.379554829     0.901184927   0.000379746881 -0.000197704009   0.000379746881 -0.000197704009      0.379475874     0.901375226
12.66322             0.380007875     0.900972693   0.000380348953 -0.000198281613   0.000380348953 -0.000198281613      0.379926095     0.901164456
12.663248            0.380461229     0.900760014   0.000380952057 -0.000198860994   0.000380952057 -0.000198860994      0.380376621     0.900953247
12.663276            0.380914889      0.90054689   0.000381556196 -0.000199442158   0.000381556196 -0.000199442158      0.380827452     0.900741597
12.663304            0.381368857      0.90033332    0.00038216137  -0.00020002511    0.00038216137  -0.00020002511      0.381278589     0.900529506
12.663332            0.381823132     0.900119302   0.000382767581 -0.000200609858   0.000382767581 -0.000200609858      0.381730031     0.900316972
12.66336             0.382277715     0.899904837   0.000383374831 -0.000201196406   0.000383374831 -0.000201196406       0.38218178     0.900103995
12.663388            0.382732606     0.899689922    0.00038398312 -0.000201784761    0.00038398312 -0.000201784761      0.382633834     0.899890573
12.663416            0.383187806     0.899474556   0.000384592452 -0.000202374929   0.000384592452 -0.000202374929      0.383086196     0.899676706
12.663444            0.383643314      0.89925874   0.000385202826 -0.000202966916   0.000385202826 -0.000202966916      0.383538864     0.899462392
12.663472            0.384099131     0.899042471   0.000385814245 -0.000203560729   0.000385814245 -0.000203560729      0.383991839     0.899247631
12.6635              0.384555257     0.898825749    0.00038642671 -0.000204156373    0.00038642671 -0.000204156373      0.384445121     0.899032422
12.663528            0.385011693     0.898608572   0.000387040222 -0.000204753854   0.000387040222 -0.000204753854      0.384898711     0.898816763
12.663556            0.385468438     0.898390941   0.000387654783  -0.00020535318   0.000387654783  -0.00020535318      0.385352609     0.898600654
12.663584            0.385925493     0.898172853   0.000388270394 -0.000205954355   0.000388270394 -0.000205954355      0.385806815     0.898384093
12.663612            0.386382859     0.897954307   0.000388887058 -0.000206557387   0.000388887058 -0.000206557387       0.38626133      0.89816708
12.66364             0.386840535     0.897735304   0.000389504774 -0.000207162281   0.000389504774 -0.000207162281      0.386716153     0.897949614
12.663668            0.387298521     0.897515841   0.000390123545 -0.000207769045   0.000390123545 -0.000207769045      0.387171285     0.897731693
12.663696            0.387756819     0.897295917   0.000390743373 -0.000208377683   0.000390743373 -0.000208377683      0.387626726     0.897513317
12.663724            0.388215428     0.897075533   0.000391364258 -0.000208988203   0.000391364258 -0.000208988203      0.388082477     0.897294484
12.663752            0.388674348     0.896854685   0.000391986202 -0.000209600611   0.000391986202 -0.000209600611      0.388538538     0.897075194
12.66378              0.38913358     0.896633375   0.000392609206 -0.000210214913   0.000392609206 -0.000210214913      0.388994908     0.896855445
12.663808            0.389593125     0.896411599   0.000393233273 -0.000210831116   0.000393233273 -0.000210831116      0.389451589     0.896635237
12.663836            0.390052981     0.896189359   0.000393858403 -0.000211449226   0.000393858403 -0.000211449226       0.38990858     0.896414569
12.663864            0.390513151     0.895966651   0.000394484598 -0.000212069249   0.000394484598  -0.00021206925      0.390365882     0.896193438
12.663892            0.390973633     0.895743476   0.000395111859 -0.000212691193   0.000395111859 -0.000212691193      0.390823495     0.895971845
12.66392             0.391434428     0.895519832   0.000395740188 -0.000213315064   0.000395740188 -0.000213315064       0.39128142     0.895749789
12.663948            0.391895536     0.895295719   0.000396369586 -0.000213940867   0.000396369586 -0.000213940867      0.391739656     0.895527268
12.663976            0.392356959     0.895071134   0.000397000055  -0.00021456861   0.000397000055  -0.00021456861      0.392198204     0.895304281
12.664004            0.392818695     0.894846078   0.000397631596 -0.000215198299   0.000397631596   -0.0002151983      0.392657064     0.895080827
12.664032            0.393280745     0.894620549   0.000398264211 -0.000215829942   0.000398264211 -0.000215829942      0.393116236     0.894856905
12.66406              0.39374311     0.894394546     0.0003988979 -0.000216463544     0.0003988979 -0.000216463544      0.393575721     0.894632515
12.664088            0.394205789     0.894168068   0.000399532666 -0.000217099111   0.000399532666 -0.000217099112      0.394035519     0.894407655
12.664116            0.394668783     0.893941113   0.000400168509 -0.000217736652   0.000400168509 -0.000217736652       0.39449563     0.894182323
12.664144            0.395132093     0.893713682   0.000400805432 -0.000218376172   0.000400805432 -0.000218376173      0.394956055      0.89395652
12.664172            0.395595718     0.893485772   0.000401443436 -0.000219017679   0.000401443436 -0.000219017679      0.395416793     0.893730243
12.6642              0.396059659     0.893257383   0.000402082521 -0.000219661179   0.000402082521 -0.000219661179      0.395877846     0.893503492
12.664228            0.396523916     0.893028513    0.00040272269 -0.000220306678    0.00040272269 -0.000220306678      0.396339212     0.893276266
12.664256            0.396988489     0.892799162   0.000403363944 -0.000220954184   0.000403363944 -0.000220954184      0.396800893     0.893048564
12.664284            0.397453379     0.892569328   0.000404006285 -0.000221603703   0.000404006285 -0.000221603703      0.397262889     0.892820384
12.664312            0.397918585      0.89233901   0.000404649713 -0.000222255243   0.000404649713 -0.000222255243        0.3977252     0.892591726
12.66434             0.398384109     0.892108208    0.00040529423  -0.00022290881    0.00040529423  -0.00022290881      0.398187826     0.892362589
12.664368             0.39884995      0.89187692   0.000405939837 -0.000223564411   0.000405939837 -0.000223564411      0.398650768      0.89213297
12.664396            0.399316108     0.891645144   0.000406586537 -0.000224222053   0.000406586537 -0.000224222053      0.399114026      0.89190287
12.664424            0.399782585     0.891412881    0.00040723433 -0.000224881742    0.00040723433 -0.000224881742      0.399577599     0.891672287
12.664452            0.400249379     0.891180128   0.000407883218 -0.000225543487   0.000407883218 -0.000225543487      0.400041489      0.89144122
12.66448             0.400716492     0.890946885   0.000408533202 -0.000226207294   0.000408533202 -0.000226207294      0.400505696     0.891209668
12.664508            0.401183924     0.890713151   0.000409184283 -0.000226873169   0.000409184283 -0.000226873169       0.40097022      0.89097763
12.664536            0.401651674     0.890478924   0.000409836463 -0.000227541121   0.000409836463 -0.000227541121      0.401435061     0.890745105
12.664564            0.402119744     0.890244203   0.000410489744 -0.000228211155   0.000410489744 -0.000228211156      0.401900219     0.890512091
12.664592            0.402588133     0.890008988   0.000411144126  -0.00022888328   0.000411144126 -0.000228883281      0.402365695     0.890278588
12.66462             0.403056841     0.889773276   0.000411799611 -0.000229557503   0.000411799611 -0.000229557503      0.402831489     0.890044595
12.664648             0.40352587     0.889537068   0.000412456201 -0.000230233829   0.000412456201 -0.000230233829      0.403297601     0.889810109
12.664676            0.403995219     0.889300361   0.000413113896 -0.000230912268   0.000413113896 -0.000230912268      0.403764031     0.889575131
12.664704            0.404464889     0.889063155   0.000413772699 -0.000231592825   0.000413772699 -0.000231592825      0.404230781     0.889339659
12.664732            0.404934879     0.888825448    0.00041443261 -0.000232275509    0.00041443261 -0.000232275509      0.404697849     0.889103692
12.66476              0.40540519      0.88858724   0.000415093631 -0.000232960326   0.000415093631 -0.000232960326      0.405165237     0.888867229
12.664788            0.405875823     0.888348529   0.000415755764 -0.000233647283   0.000415755764 -0.000233647283      0.405632944     0.888630268
12.664816            0.406346777     0.888109314   0.000416419009 -0.000234336389   0.000416419009 -0.000234336389      0.406100971     0.888392809
12.664844            0.406818053     0.887869594   0.000417083367  -0.00023502765   0.000417083367  -0.00023502765      0.406569318     0.888154851
12.664872            0.407289651     0.887629368   0.000417748842 -0.000235721074   0.000417748842 -0.000235721074      0.407037986     0.887916391
12.6649              0.407761571     0.887388634   0.000418415432 -0.000236416668   0.000418415432 -0.000236416668      0.407506974      0.88767743
12.664928            0.408233814     0.887147392   0.000419083141 -0.000237114439   0.000419083141 -0.000237114439      0.407976283     0.887437966
12.664956            0.408706379      0.88690564   0.000419751969 -0.000237814396   0.000419751969 -0.000237814396      0.408445913     0.887197997
12.664984            0.409179268     0.886663377   0.000420421918 -0.000238516545   0.000420421918 -0.000238516545      0.408915864     0.886957523
12.665012             0.40965248     0.886420602   0.000421092989 -0.000239220895   0.000421092989 -0.000239220895      0.409386137     0.886716543
12.66504             0.410126016     0.886177314   0.000421765183 -0.000239927451   0.000421765183 -0.000239927452      0.409856732     0.886475055
12.665068            0.410599876     0.885933511   0.000422438501 -0.000240636223   0.000422438501 -0.000240636224       0.41032765     0.886233058
12.665096             0.41107406     0.885689193   0.000423112946 -0.000241347218   0.000423112946 -0.000241347218      0.410798889     0.885990551
12.665124            0.411548568     0.885444358   0.000423788518 -0.000242060444   0.000423788518 -0.000242060444      0.411270452     0.885747533
12.665152            0.412023401     0.885199005   0.000424465218 -0.000242775907   0.000424465218 -0.000242775907      0.411742337     0.885504003
12.66518             0.412498559     0.884953132   0.000425143049 -0.000243493616   0.000425143049 -0.000243493616      0.412214546     0.885259959
12.665208            0.412974042      0.88470674    0.00042582201 -0.000244213578    0.00042582201 -0.000244213579      0.412687078       0.8850154
12.665236            0.413449851     0.884459825   0.000426502104 -0.000244935802   0.000426502104 -0.000244935802      0.413159934     0.884770325
12.665264            0.413925985     0.884212388   0.000427183332 -0.000245660295   0.000427183332 -0.000245660295      0.413633113     0.884524734
12.665292            0.414402445     0.883964427   0.000427865694 -0.000246387064   0.000427865694 -0.000246387064      0.414106618     0.884278624
12.66532             0.414879232     0.883715941   0.000428549193 -0.000247116118   0.000428549193 -0.000247116118      0.414580446     0.884031994
12.665348            0.415356345     0.883466928    0.00042923383 -0.000247847465    0.00042923383 -0.000247847465        0.4150546     0.883784844
12.665376            0.415833784     0.883217387   0.000429919605 -0.000248581112   0.000429919605 -0.000248581112      0.415529078     0.883537172
12.665404            0.416311551     0.882967318   0.000430606521 -0.000249317067   0.000430606521 -0.000249317067      0.416003882     0.883288977