! TOUCHSTONE file generated by CST MICROWAVE STUDIO
! Date and time: Wed Jul 31 15:16:48 2024
! Project name: WaveGuide_BPF-Ver4.1_U-shape_Ku_T3_C4_CWA_2.cst
! Parameters = {cavity_h=16; cavity_l0=10; cavity_l1=15.1662; cavity_l2=16.8302; cavity_l3=17.0742; cavity_l4=17.2665; cavity_l5=17.1191; cavity_l6=17.5779; cavity_r=2.5; cavity_screw_l=0.5; cavity_screw_r=1.5; cavity_w=8; iris_h00=0; iris_h01=8.808; iris_h112=0; iris_h12=5.5948; iris_h211=3.6545; iris_h23=5.1914; iris_h310=3.9624; iris_h34=5.0798; iris_h45=4.9383; iris_h49=4.6177; iris_h56=4.7961; iris_h58=4.4303; iris_h67=6.5752; iris_rx=0.1; iris_screw_l=0.5; iris_screw_r=1.5; iris_shift00=0; iris_shift112=0; iris_shift211=3.5; iris_shift310=0; iris_shift49=0; iris_shift58=3.5; iris_shift67=3.5; iris_tx=4.5; iris_tz=4.5; iris_w00=0; iris_w112=0; iris_w211=4; iris_w310=3.9624; iris_w49=4.6177; iris_w58=4; iris_w67=4; mesh_cavity=5; mesh_iris=7; mesh_screw=7; order=12; reset_all=0; sigma=4.8e+07}
! Header version: 2018
! Port assignment regex: !\s*Touchstone port\s*([0-9]+)\s*=\s*(CST MWS port|CST DS port)\s*([0-9]+|Zmin|Zmax)\s*\(\"(.*)\"\)(\s*mode\s*([0-9]+))?.*
! Touchstone port assignment:
! Touchstone port 1 = CST MWS port 1 ("")
! Touchstone port 2 = CST MWS port 2 ("")
# GHz S RI R 50
12.66                0.178437213     0.969236235   0.000150834335 -3.80769132e-05   0.000150834335 -3.80769134e-05      0.182840724     0.968401139
12.660028            0.178746645     0.969170903   0.000151037004 -3.81830931e-05   0.000151037004 -3.81830933e-05      0.183151329     0.968334094
12.660056            0.179056284     0.969105419   0.000151239995 -3.82895439e-05   0.000151239995 -3.82895441e-05      0.183462034     0.968266915
12.660084            0.179366114     0.969039787   0.000151443308 -3.83962673e-05   0.000151443308 -3.83962675e-05      0.183772869     0.968199598
12.660112            0.179676119      0.96897401   0.000151646943 -3.85032652e-05   0.000151646943 -3.85032653e-05      0.184083865     0.968132136
12.66014             0.179986285     0.968908089     0.0001518509 -3.86105393e-05     0.0001518509 -3.86105395e-05      0.184395052     0.968064523
12.660168            0.180296611     0.968842025   0.000152055179 -3.87180905e-05    0.00015205518 -3.87180907e-05      0.184706431     0.967996759
12.660196            0.180607107     0.968775816   0.000152259783 -3.88259187e-05   0.000152259783 -3.88259189e-05       0.18501798     0.967928848
12.660224            0.180917775     0.968709461    0.00015246471 -3.89340248e-05    0.00015246471  -3.8934025e-05      0.185329701      0.96786079
12.660252            0.181228613     0.968642961   0.000152669962 -3.90424095e-05   0.000152669962 -3.90424097e-05      0.185641594     0.967792584
12.66028             0.181539623     0.968576314   0.000152875539 -3.91510735e-05   0.000152875539 -3.91510737e-05      0.185953658     0.967724229
12.660308            0.181850804     0.968509521   0.000153081442 -3.92600177e-05   0.000153081442 -3.92600179e-05      0.186265894     0.967655726
12.660336            0.182162157     0.968442581   0.000153287671 -3.93692427e-05   0.000153287671 -3.93692429e-05      0.186578303     0.967587075
12.660364            0.182473681     0.968375494   0.000153494228 -3.94787494e-05   0.000153494228 -3.94787496e-05      0.186890883     0.967518275
12.660392            0.182785378     0.968308261   0.000153701111 -3.95885386e-05   0.000153701112 -3.95885388e-05      0.187203635     0.967449326
12.66042             0.183097246      0.96824088   0.000153908324 -3.96986109e-05   0.000153908324 -3.96986111e-05       0.18751656     0.967380228
12.660448            0.183409286     0.968173351   0.000154115864 -3.98089672e-05   0.000154115864 -3.98089674e-05      0.187829657      0.96731098
12.660476            0.183721499     0.968105675   0.000154323734 -3.99196083e-05   0.000154323735 -3.99196085e-05      0.188142927     0.967241582
12.660504            0.184033884      0.96803785   0.000154531934 -4.00305349e-05   0.000154531934 -4.00305351e-05       0.18845637     0.967172035
12.660532            0.184346441     0.967969878   0.000154740465 -4.01417479e-05   0.000154740465 -4.01417481e-05      0.188769986     0.967102337
12.66056             0.184659171     0.967901757   0.000154949326 -4.02532479e-05   0.000154949326 -4.02532481e-05      0.189083775     0.967032488
12.660588            0.184972075     0.967833487   0.000155158519 -4.03650359e-05   0.000155158519 -4.03650361e-05      0.189397737     0.966962489
12.660616            0.185285151     0.967765068   0.000155368044 -4.04771125e-05   0.000155368044 -4.04771127e-05      0.189711873     0.966892339
12.660644              0.1855984       0.9676965   0.000155577902 -4.05894786e-05   0.000155577902 -4.05894788e-05      0.190026182     0.966822038
12.660672            0.185911822     0.967627782   0.000155788093  -4.0702135e-05   0.000155788093 -4.07021352e-05      0.190340665     0.966751585
12.6607              0.186225418     0.967558914   0.000155998618 -4.08150825e-05   0.000155998619 -4.08150827e-05      0.190655321      0.96668098
12.660728            0.186539187     0.967489897   0.000156209478 -4.09283218e-05   0.000156209478  -4.0928322e-05      0.190970152     0.966610224
12.660756             0.18685313     0.967420729   0.000156420673 -4.10418538e-05   0.000156420673  -4.1041854e-05      0.191285157     0.966539315
12.660784            0.187167247     0.967351411   0.000156632204 -4.11556793e-05   0.000156632204 -4.11556794e-05      0.191600336     0.966468254
12.660812            0.187481538     0.967281943   0.000156844071  -4.1269799e-05   0.000156844071 -4.12697992e-05       0.19191569      0.96639704
12.66084             0.187796003     0.967212323   0.000157056275 -4.13842139e-05   0.000157056275  -4.1384214e-05      0.192231218     0.966325673
12.660868            0.188110643     0.967142552   0.000157268816 -4.14989246e-05   0.000157268816 -4.14989248e-05      0.192546921     0.966254153
12.660896            0.188425457      0.96707263   0.000157481695 -4.16139321e-05   0.000157481696 -4.16139323e-05      0.192862798     0.966182479
12.660924            0.188740445     0.967002555   0.000157694914 -4.17292371e-05   0.000157694914 -4.17292373e-05      0.193178851     0.966110652
12.660952            0.189055608     0.966932329   0.000157908471 -4.18448405e-05   0.000157908471 -4.18448406e-05      0.193495079     0.966038671
12.66098             0.189370946     0.966861951   0.000158122368  -4.1960743e-05   0.000158122368 -4.19607432e-05      0.193811482     0.965966535
12.661008            0.189686459      0.96679142   0.000158336606 -4.20769455e-05   0.000158336606 -4.20769457e-05      0.194128061     0.965894245
12.661036            0.190002148     0.966720737   0.000158551185 -4.21934489e-05   0.000158551185 -4.21934491e-05      0.194444815     0.965821801
12.661064            0.190318011     0.966649901   0.000158766105 -4.23102539e-05   0.000158766106 -4.23102541e-05      0.194761745     0.965749201
12.661092             0.19063405     0.966578911   0.000158981368 -4.24273614e-05   0.000158981368 -4.24273616e-05      0.195078851     0.965676446
12.66112             0.190950265     0.966507768   0.000159196974 -4.25447722e-05   0.000159196974 -4.25447724e-05      0.195396133     0.965603535
12.661148            0.191266655     0.966436471   0.000159412923 -4.26624872e-05   0.000159412923 -4.26624874e-05      0.195713591     0.965530469
12.661176            0.191583222      0.96636502   0.000159629216 -4.27805071e-05   0.000159629217 -4.27805073e-05      0.196031225     0.965457247
12.661204            0.191899964     0.966293415   0.000159845854 -4.28988329e-05   0.000159845855 -4.28988331e-05      0.196349036     0.965383868
12.661232            0.192216883     0.966221656   0.000160062838 -4.30174654e-05   0.000160062838 -4.30174656e-05      0.196667023     0.965310333
12.66126             0.192533978     0.966149742   0.000160280167 -4.31364054e-05   0.000160280167 -4.31364056e-05      0.196985188     0.965236642
12.661288             0.19285125     0.966077673   0.000160497843 -4.32556538e-05   0.000160497843  -4.3255654e-05      0.197303529     0.965162793
12.661316            0.193168698     0.966005448   0.000160715866 -4.33752114e-05   0.000160715866 -4.33752116e-05      0.197622047     0.965088787
12.661344            0.193486323     0.965933069   0.000160934236 -4.34950791e-05   0.000160934237 -4.34950793e-05      0.197940743     0.965014623
12.661372            0.193804125     0.965860533   0.000161152955 -4.36152577e-05   0.000161152956 -4.36152579e-05      0.198259616     0.964940302
12.6614              0.194122104     0.965787842   0.000161372023 -4.37357481e-05   0.000161372024 -4.37357483e-05      0.198578666     0.964865822
12.661428             0.19444026     0.965714994   0.000161591441 -4.38565512e-05   0.000161591441 -4.38565514e-05      0.198897894     0.964791184
12.661456            0.194758594     0.965641989   0.000161811209 -4.39776678e-05   0.000161811209  -4.3977668e-05        0.1992173     0.964716388
12.661484            0.195077105     0.965568828   0.000162031327 -4.40990988e-05   0.000162031328  -4.4099099e-05      0.199536884     0.964641432
12.661512            0.195395794      0.96549551   0.000162251797 -4.42208451e-05   0.000162251798 -4.42208452e-05      0.199856646     0.964566318
12.66154             0.195714661     0.965422035    0.00016247262 -4.43429074e-05    0.00016247262 -4.43429076e-05      0.200176587     0.964491044
12.661568            0.196033706     0.965348402   0.000162693794 -4.44652868e-05   0.000162693795  -4.4465287e-05      0.200496705     0.964415611
12.661596            0.196352929     0.965274611   0.000162915322 -4.45879841e-05   0.000162915323 -4.45879843e-05      0.200817003     0.964340017
12.661624             0.19667233     0.965200662   0.000163137205 -4.47110001e-05   0.000163137205 -4.47110003e-05      0.201137479     0.964264264
12.661652             0.19699191     0.965126555   0.000163359441 -4.48343358e-05   0.000163359441  -4.4834336e-05      0.201458134      0.96418835
12.66168             0.197311669     0.965052289   0.000163582033  -4.4957992e-05   0.000163582033 -4.49579922e-05      0.201778968     0.964112275
12.661708            0.197631606     0.964977864   0.000163804981 -4.50819696e-05   0.000163804981 -4.50819698e-05      0.202099981     0.964036039
12.661736            0.197951722      0.96490328   0.000164028285 -4.52062695e-05   0.000164028285 -4.52062697e-05      0.202421173     0.963959643
12.661764            0.198272017     0.964828537   0.000164251946 -4.53308927e-05   0.000164251946 -4.53308929e-05      0.202742545     0.963883084
12.661792            0.198592492     0.964753634   0.000164475964 -4.54558399e-05   0.000164475965 -4.54558401e-05      0.203064096     0.963806364
12.66182             0.198913145     0.964678572   0.000164700342 -4.55811121e-05   0.000164700342 -4.55811123e-05      0.203385828     0.963729482
12.661848            0.199233979     0.964603349   0.000164925078 -4.57067103e-05   0.000164925078 -4.57067105e-05      0.203707739     0.963652437
12.661876            0.199554992     0.964527965   0.000165150173 -4.58326352e-05   0.000165150173 -4.58326354e-05       0.20402983      0.96357523
12.661904            0.199876184     0.964452421   0.000165375629 -4.59588878e-05   0.000165375629  -4.5958888e-05      0.204352101      0.96349786
12.661932            0.200197557     0.964376716   0.000165601446 -4.60854691e-05   0.000165601446 -4.60854693e-05      0.204674553     0.963420327
12.66196              0.20051911      0.96430085   0.000165827624 -4.62123799e-05   0.000165827624 -4.62123801e-05      0.204997186     0.963342631
12.661988            0.200840843     0.964224822   0.000166054164 -4.63396212e-05   0.000166054165 -4.63396213e-05      0.205319999     0.963264771
12.662016            0.201162757     0.964148632   0.000166281067 -4.64671938e-05   0.000166281068  -4.6467194e-05      0.205642993     0.963186747
12.662044            0.201484851     0.964072281   0.000166508334 -4.65950987e-05   0.000166508334 -4.65950989e-05      0.205966167     0.963108559
12.662072            0.201807126     0.963995767   0.000166735965 -4.67233368e-05   0.000166735965  -4.6723337e-05      0.206289523     0.963030206
12.6621              0.202129581      0.96391909    0.00016696396  -4.6851909e-05    0.00016696396 -4.68519092e-05      0.206613061     0.962951689
12.662128            0.202452218     0.963842251    0.00016719232 -4.69808163e-05   0.000167192321 -4.69808165e-05      0.206936779     0.962873007
12.662156            0.202775036     0.963765248   0.000167421047 -4.71100596e-05   0.000167421047 -4.71100598e-05       0.20726068     0.962794159
12.662184            0.203098036     0.963688082    0.00016765014 -4.72396399e-05    0.00016765014 -4.72396401e-05      0.207584762     0.962715146
12.662212            0.203421216     0.963610753     0.0001678796  -4.7369558e-05   0.000167879601 -4.73695582e-05      0.207909026     0.962635967
12.66224             0.203744579     0.963533259   0.000168109429 -4.74998149e-05   0.000168109429 -4.74998151e-05      0.208233472     0.962556621
12.662268            0.204068123     0.963455601   0.000168339626 -4.76304116e-05   0.000168339626 -4.76304118e-05        0.2085581      0.96247711
12.662296             0.20439185     0.963377779   0.000168570192  -4.7761349e-05   0.000168570192 -4.77613492e-05       0.20888291     0.962397432
12.662324            0.204715758     0.963299792   0.000168801128  -4.7892628e-05   0.000168801128 -4.78926282e-05      0.209207903     0.962317586
12.662352            0.205039849      0.96322164   0.000169032434 -4.80242496e-05   0.000169032434 -4.80242498e-05      0.209533079     0.962237574
12.66238             0.205364122     0.963143323   0.000169264112 -4.81562148e-05   0.000169264112  -4.8156215e-05      0.209858437     0.962157394
12.662408            0.205688577      0.96306484   0.000169496161 -4.82885245e-05   0.000169496162 -4.82885247e-05      0.210183979     0.962077046
12.662436            0.206013216     0.962986191   0.000169728583 -4.84211797e-05   0.000169728584 -4.84211799e-05      0.210509703      0.96199653
12.662464            0.206338037     0.962907376   0.000169961378 -4.85541813e-05   0.000169961379 -4.85541815e-05      0.210835611     0.961915846
12.662492            0.206663041     0.962828394   0.000170194547 -4.86875303e-05   0.000170194548 -4.86875305e-05      0.211161703     0.961834994
12.66252             0.206988229     0.962749246   0.000170428091 -4.88212277e-05   0.000170428091 -4.88212279e-05      0.211487977     0.961753972
12.662548              0.2073136     0.962669931   0.000170662009 -4.89552744e-05   0.000170662009 -4.89552746e-05      0.211814436     0.961672781
12.662576            0.207639154     0.962590449   0.000170896303 -4.90896715e-05   0.000170896304 -4.90896717e-05      0.212141078     0.961591421
12.662604            0.207964892     0.962510799   0.000171130974 -4.92244198e-05   0.000171130974   -4.922442e-05      0.212467905     0.961509891
12.662632            0.208290814     0.962430981   0.000171366022 -4.93595204e-05   0.000171366022 -4.93595206e-05      0.212794916     0.961428191
12.66266             0.208616919     0.962350995   0.000171601447 -4.94949743e-05   0.000171601447 -4.94949745e-05      0.213122111      0.96134632
12.662688            0.208943209     0.962270841   0.000171837251 -4.96307825e-05   0.000171837251 -4.96307827e-05       0.21344949     0.961264279
12.662716            0.209269683     0.962190518   0.000172073434 -4.97669459e-05   0.000172073434 -4.97669461e-05      0.213777055     0.961182067
12.662744            0.209596342     0.962110026   0.000172309997 -4.99034655e-05   0.000172309997 -4.99034657e-05      0.214104804     0.961099684
12.662772            0.209923185     0.962029365    0.00017254694 -5.00403424e-05    0.00017254694 -5.00403425e-05      0.214432738      0.96101713
12.6628              0.210250213     0.961948535   0.000172784265 -5.01775774e-05   0.000172784265 -5.01775776e-05      0.214760857     0.960934403
12.662828            0.210577426     0.961867534   0.000173021971 -5.03151718e-05   0.000173021971  -5.0315172e-05      0.215089161     0.960851505
12.662856            0.210904824     0.961786364   0.000173260059 -5.04531263e-05   0.000173260059 -5.04531265e-05      0.215417651     0.960768434
12.662884            0.211232407     0.961705023   0.000173498531 -5.05914421e-05   0.000173498531 -5.05914423e-05      0.215746327     0.960685191
12.662912            0.211560176     0.961623512   0.000173737386 -5.07301202e-05   0.000173737387 -5.07301204e-05      0.216075188     0.960601775
12.66294              0.21188813     0.961541829   0.000173976626 -5.08691615e-05   0.000173976626 -5.08691617e-05      0.216404235     0.960518185
12.662968            0.212216269     0.961459976   0.000174216251 -5.10085672e-05   0.000174216252 -5.10085673e-05      0.216733468     0.960434423
12.662996            0.212544595     0.961377951   0.000174456262 -5.11483381e-05   0.000174456262 -5.11483383e-05      0.217062887     0.960350486
12.663024            0.212873106     0.961295754    0.00017469666 -5.12884754e-05    0.00017469666 -5.12884755e-05      0.217392493     0.960266375
12.663052            0.213201804     0.961213385   0.000174937444   -5.142898e-05   0.000174937444 -5.14289802e-05      0.217722286      0.96018209
12.66308             0.213530688     0.961130843   0.000175178617  -5.1569853e-05   0.000175178617 -5.15698532e-05      0.218052265      0.96009763
12.663108            0.213859759     0.961048129   0.000175420178 -5.17110955e-05   0.000175420178 -5.17110957e-05       0.21838243     0.960012996
12.663136            0.214189016     0.960965242   0.000175662128 -5.18527084e-05   0.000175662128 -5.18527086e-05      0.218712783     0.959928186
12.663164             0.21451846     0.960882182   0.000175904468 -5.19946928e-05   0.000175904468  -5.1994693e-05      0.219043323       0.9598432
12.663192            0.214848091     0.960798948   0.000176147199 -5.21370498e-05   0.000176147199   -5.213705e-05       0.21937405     0.959758039
12.66322             0.215177909      0.96071554   0.000176390321 -5.22797803e-05   0.000176390321 -5.22797805e-05      0.219704965     0.959672701
12.663248            0.215507914     0.960631958   0.000176633835 -5.24228855e-05   0.000176633835 -5.24228857e-05      0.220036068     0.959587188
12.663276            0.215838106     0.960548202   0.000176877742 -5.25663664e-05   0.000176877742 -5.25663666e-05      0.220367358     0.959501497
12.663304            0.216168487     0.960464271   0.000177122042  -5.2710224e-05   0.000177122042 -5.27102242e-05      0.220698836     0.959415629
12.663332            0.216499055     0.960380165   0.000177366736 -5.28544595e-05   0.000177366736 -5.28544597e-05      0.221030502     0.959329584
12.66336              0.21682981     0.960295884   0.000177611825 -5.29990738e-05   0.000177611825  -5.2999074e-05      0.221362357     0.959243362
12.663388            0.217160754     0.960211427    0.00017785731  -5.3144068e-05    0.00017785731 -5.31440682e-05      0.221694399     0.959156961
12.663416            0.217491886     0.960126794    0.00017810319 -5.32894433e-05    0.00017810319 -5.32894434e-05      0.222026631     0.959070383
12.663444            0.217823207     0.960041985   0.000178349467 -5.34352006e-05   0.000178349468 -5.34352008e-05      0.222359051     0.958983625
12.663472            0.218154716        0.959957   0.000178596142  -5.3581341e-05   0.000178596143 -5.35813412e-05       0.22269166     0.958896689
12.6635              0.218486414     0.959871838   0.000178843216 -5.37278657e-05   0.000178843216 -5.37278659e-05      0.223024458     0.958809574
12.663528              0.2188183     0.959786498   0.000179090688 -5.38747758e-05   0.000179090688 -5.38747759e-05      0.223357446     0.958722279
12.663556            0.219150376     0.959700981   0.000179338559 -5.40220722e-05    0.00017933856 -5.40220723e-05      0.223690622     0.958634805
12.663584            0.219482641     0.959615287   0.000179586832  -5.4169756e-05   0.000179586832 -5.41697562e-05      0.224023989     0.958547151
12.663612            0.219815095     0.959529414   0.000179835505 -5.43178285e-05   0.000179835505 -5.43178287e-05      0.224357545     0.958459316
12.66364             0.220147738     0.959443364    0.00018008458 -5.44662906e-05    0.00018008458 -5.44662908e-05       0.22469129     0.958371301
12.663668            0.220480571     0.959357134   0.000180334057 -5.46151435e-05   0.000180334057 -5.46151437e-05      0.225025226     0.958283104
12.663696            0.220813594     0.959270726   0.000180583938 -5.47643883e-05   0.000180583938 -5.47643885e-05      0.225359352     0.958194727
12.663724            0.221146807     0.959184138   0.000180834222  -5.4914026e-05   0.000180834222 -5.49140262e-05      0.225693668     0.958106168
12.663752             0.22148021     0.959097371   0.000181084911 -5.50640579e-05   0.000181084911 -5.50640581e-05      0.226028175     0.958017427
12.66378             0.221813804     0.959010425   0.000181336005 -5.52144849e-05   0.000181336006 -5.52144851e-05      0.226362873     0.957928503
12.663808            0.222147588     0.958923298   0.000181587506 -5.53653082e-05   0.000181587506 -5.53653084e-05      0.226697761     0.957839398
12.663836            0.222481562      0.95883599   0.000181839413  -5.5516529e-05   0.000181839413 -5.55165292e-05       0.22703284     0.957750109
12.663864            0.222815727     0.958748502   0.000182091727 -5.56681483e-05   0.000182091728 -5.56681485e-05       0.22736811     0.957660638
12.663892            0.223150084     0.958660833    0.00018234445 -5.58201673e-05    0.00018234445 -5.58201675e-05      0.227703572     0.957570982
12.66392             0.223484631     0.958572983   0.000182597582 -5.59725871e-05   0.000182597582 -5.59725873e-05      0.228039225     0.957481144
12.663948            0.223819369     0.958484951   0.000182851123 -5.61254089e-05   0.000182851123 -5.61254091e-05      0.228375069     0.957391121
12.663976            0.224154299     0.958396736   0.000183105075 -5.62786337e-05   0.000183105075 -5.62786339e-05      0.228711106     0.957300914
12.664004            0.224489421      0.95830834   0.000183359437 -5.64322628e-05   0.000183359437 -5.64322629e-05      0.229047334     0.957210522
12.664032            0.224824734     0.958219761   0.000183614211 -5.65862972e-05   0.000183614212 -5.65862973e-05      0.229383754     0.957119945
12.66406             0.225160239     0.958130999   0.000183869398 -5.67407381e-05   0.000183869399 -5.67407383e-05      0.229720367     0.957029183
12.664088            0.225495937     0.958042054   0.000184124998 -5.68955866e-05   0.000184124999 -5.68955868e-05      0.230057172     0.956938235
12.664116            0.225831826     0.957952926   0.000184381012  -5.7050844e-05   0.000184381013 -5.70508442e-05       0.23039417     0.956847102
12.664144            0.226167908     0.957863613   0.000184637441 -5.72065114e-05   0.000184637441 -5.72065115e-05       0.23073136     0.956755782
12.664172            0.226504183     0.957774117   0.000184894285 -5.73625898e-05   0.000184894285   -5.736259e-05      0.231068743     0.956664275
12.6642               0.22684065     0.957684436   0.000185151545 -5.75190806e-05   0.000185151546 -5.75190808e-05      0.231406319     0.956572582
12.664228             0.22717731      0.95759457   0.000185409222 -5.76759848e-05   0.000185409223  -5.7675985e-05      0.231744089     0.956480701
12.664256            0.227514163     0.957504519   0.000185667317 -5.78333037e-05   0.000185667317 -5.78333039e-05      0.232082052     0.956388633
12.664284            0.227851209     0.957414283    0.00018592583 -5.79910384e-05    0.00018592583 -5.79910386e-05      0.232420208     0.956296377
12.664312            0.228188449      0.95732386   0.000186184762   -5.814919e-05   0.000186184762 -5.81491902e-05      0.232758558     0.956203933
12.66434             0.228525882     0.957233252   0.000186444114 -5.83077599e-05   0.000186444114   -5.830776e-05      0.233097102       0.9561113
12.664368            0.228863509     0.957142458   0.000186703886  -5.8466749e-05   0.000186703887 -5.84667492e-05       0.23343584     0.956018479
12.664396             0.22920133     0.957051477    0.00018696408 -5.86261588e-05    0.00018696408  -5.8626159e-05      0.233774772     0.955925469
12.664424            0.229539344     0.956960309   0.000187224696 -5.87859903e-05   0.000187224696 -5.87859904e-05      0.234113899     0.955832269
12.664452            0.229877553     0.956868953   0.000187485734 -5.89462447e-05   0.000187485735 -5.89462449e-05       0.23445322     0.955738879
12.66448             0.230215957      0.95677741   0.000187747196 -5.91069232e-05   0.000187747196 -5.91069234e-05      0.234792736     0.955645299
12.664508            0.230554554     0.956685679   0.000188009082 -5.92680271e-05   0.000188009083 -5.92680273e-05      0.235132446     0.955551529
12.664536            0.230893347      0.95659376   0.000188271394 -5.94295575e-05   0.000188271394 -5.94295577e-05      0.235472352     0.955457568
12.664564            0.231232334     0.956501652   0.000188534131 -5.95915158e-05   0.000188534131 -5.95915159e-05      0.235812453     0.955363415
12.664592            0.231571517     0.956409355   0.000188797294 -5.97539029e-05   0.000188797294 -5.97539031e-05      0.236152749     0.955269072
12.66462             0.231910894     0.956316869   0.000189060885 -5.99167203e-05   0.000189060885 -5.99167205e-05       0.23649324     0.955174537
12.664648            0.232250467     0.956224193   0.000189324903 -6.00799691e-05   0.000189324903 -6.00799693e-05      0.236833928     0.955079809
12.664676            0.232590235     0.956131328   0.000189589351 -6.02436506e-05   0.000189589351 -6.02436508e-05      0.237174811      0.95498489
12.664704            0.232930199     0.956038272   0.000189854227 -6.04077659e-05   0.000189854228 -6.04077661e-05       0.23751589     0.954889777
12.664732            0.233270359     0.955945026   0.000190119535 -6.05723164e-05   0.000190119535 -6.05723166e-05      0.237857165     0.954794472
12.66476             0.233610715     0.955851588   0.000190385273 -6.07373032e-05   0.000190385273 -6.07373034e-05      0.238198636     0.954698973
12.664788            0.233951267      0.95575796   0.000190651442 -6.09027276e-05   0.000190651443 -6.09027278e-05      0.238540304      0.95460328
12.664816            0.234292016      0.95566414   0.000190918045 -6.10685909e-05   0.000190918045  -6.1068591e-05      0.238882169     0.954507394
12.664844            0.234632961     0.955570128    0.00019118508 -6.12348942e-05    0.00019118508 -6.12348944e-05       0.23922423     0.954411312
12.664872            0.234974102     0.955475924    0.00019145255 -6.14016389e-05    0.00019145255 -6.14016391e-05      0.239566489     0.954315037
12.6649               0.23531544     0.955381527   0.000191720454 -6.15688262e-05   0.000191720454 -6.15688264e-05      0.239908944     0.954218566
12.664928            0.235656976     0.955286938   0.000191988794 -6.17364574e-05   0.000191988794 -6.17364575e-05      0.240251597       0.9541219
12.664956            0.235998708     0.955192155   0.000192257571 -6.19045337e-05   0.000192257571 -6.19045338e-05      0.240594448     0.954025038
12.664984            0.236340638     0.955097179   0.000192526784 -6.20730564e-05   0.000192526784 -6.20730565e-05      0.240937496      0.95392798
12.665012            0.236682766     0.955002009   0.000192796435 -6.22420267e-05   0.000192796435 -6.22420269e-05      0.241280741     0.953830725
12.66504             0.237025091     0.954906644   0.000193066525 -6.24114461e-05   0.000193066525 -6.24114463e-05      0.241624185     0.953733274
12.665068            0.237367613     0.954811086   0.000193337054 -6.25813157e-05   0.000193337054 -6.25813158e-05      0.241967827     0.953635626
12.665096            0.237710334     0.954715332   0.000193608023 -6.27516368e-05   0.000193608023 -6.27516369e-05      0.242311667      0.95353778
12.665124            0.238053253     0.954619383   0.000193879434 -6.29224107e-05   0.000193879434 -6.29224109e-05      0.242655706     0.953439737
12.665152            0.238396371     0.954523239   0.000194151285 -6.30936387e-05   0.000194151286 -6.30936389e-05      0.242999943     0.953341496
12.66518             0.238739686     0.954426898    0.00019442358 -6.32653221e-05    0.00019442358 -6.32653223e-05      0.243344379     0.953243056
12.665208            0.239083201     0.954330362   0.000194696317 -6.34374622e-05   0.000194696318 -6.34374624e-05      0.243689014     0.953144417
12.665236            0.239426914     0.954233629   0.000194969499 -6.36100604e-05   0.000194969499 -6.36100606e-05      0.244033848     0.953045579
12.665264            0.239770826     0.954136699   0.000195243126 -6.37831178e-05   0.000195243126  -6.3783118e-05      0.244378882     0.952946542
12.665292            0.240114938     0.954039572   0.000195517198 -6.39566359e-05   0.000195517198 -6.39566361e-05      0.244724114     0.952847305
12.66532             0.240459249     0.953942247   0.000195791716  -6.4130616e-05   0.000195791716 -6.41306162e-05      0.245069547     0.952747867
12.665348            0.240803759     0.953844724   0.000196066681 -6.43050593e-05   0.000196066682 -6.43050595e-05      0.245415179      0.95264823
12.665376            0.241148469     0.953747003   0.000196342095 -6.44799672e-05   0.000196342095 -6.44799674e-05      0.245761011     0.952548391
12.665404            0.241493379     0.953649084   0.000196617957 -6.46553411e-05   0.000196617957 -6.46553413e-05      0.246107044     0.952448351