! TOUCHSTONE file generated by CST MICROWAVE STUDIO
! Date and time: Wed Jul 31 15:29:00 2024
! Project name: WaveGuide_BPF-Ver4.1_U-shape_Ku_T3_C4_CWA_2.cst
! Parameters = {cavity_h=16; cavity_l0=10; cavity_l1=15.2314; cavity_l2=16.8386; cavity_l3=17.1439; cavity_l4=17.2986; cavity_l5=17.1321; cavity_l6=17.6269; cavity_r=2.5; cavity_screw_l=0.5; cavity_screw_r=1.5; cavity_w=8; iris_h00=0; iris_h01=8.8256; iris_h112=0; iris_h12=5.5958; iris_h211=3.6655; iris_h23=5.2044; iris_h310=3.9674; iris_h34=5.0753; iris_h45=4.9248; iris_h49=4.6091; iris_h56=4.8065; iris_h58=4.436; iris_h67=6.5926; iris_rx=0.1; iris_screw_l=0.5; iris_screw_r=1.5; iris_shift00=0; iris_shift112=0; iris_shift211=3.5; iris_shift310=0; iris_shift49=0; iris_shift58=3.5; iris_shift67=3.5; iris_tx=4.5; iris_tz=4.5; iris_w00=0; iris_w112=0; iris_w211=4; iris_w310=3.9674; iris_w49=4.6091; iris_w58=4; iris_w67=4; mesh_cavity=5; mesh_iris=7; mesh_screw=7; order=12; reset_all=0; sigma=4.8e+07}
! Header version: 2018
! Port assignment regex: !\s*Touchstone port\s*([0-9]+)\s*=\s*(CST MWS port|CST DS port)\s*([0-9]+|Zmin|Zmax)\s*\(\"(.*)\"\)(\s*mode\s*([0-9]+))?.*
! Touchstone port assignment:
! Touchstone port 1 = CST MWS port 1 ("")
! Touchstone port 2 = CST MWS port 2 ("")
# GHz S RI R 50
12.66                0.467080586     0.856485474   0.000266916252  -0.00017180834   0.000266916252  -0.00017180834      0.470833382     0.854535277
12.660028            0.467557645     0.856202514    0.00026724142 -0.000172240013    0.00026724142 -0.000172240013      0.471308022     0.854251016
12.660056            0.468034818       0.8559191   0.000267566908 -0.000172672771   0.000267566908 -0.000172672771       0.47178294     0.853966212
12.660084            0.468512159     0.855635202   0.000267892709  -0.00017310662   0.000267892709  -0.00017310662      0.472258119     0.853680874
12.660112            0.468989719     0.855350791   0.000268218815 -0.000173541567   0.000268218815 -0.000173541567      0.472733539     0.853395012
12.66014             0.469467552     0.855065838   0.000268545221 -0.000173977617   0.000268545221 -0.000173977617      0.473209182     0.853108633
12.660168             0.46994566     0.854780341   0.000268871926 -0.000174414775   0.000268871926 -0.000174414775      0.473685047     0.852821738
12.660196            0.470424005     0.854494319   0.000269198934 -0.000174853039   0.000269198934 -0.000174853039      0.474161148     0.852534319
12.660224            0.470902589     0.854207771   0.000269526244 -0.000175292414   0.000269526244 -0.000175292414      0.474637484     0.852246375
12.660252             0.47138141     0.853920695   0.000269853856 -0.000175732901   0.000269853856 -0.000175732901      0.475114055     0.851957904
12.66028             0.471860469     0.853633091   0.000270181769 -0.000176174505   0.000270181769 -0.000176174505      0.475590861     0.851668906
12.660308            0.472339766     0.853344958   0.000270509983 -0.000176617227   0.000270509983 -0.000176617227      0.476067901      0.85137938
12.660336              0.4728193     0.853056295   0.000270838497  -0.00017706107   0.000270838497  -0.00017706107      0.476545177     0.851089325
12.660364            0.473299072     0.852767101   0.000271167312 -0.000177506038   0.000271167312 -0.000177506038      0.477022687      0.85079874
12.660392            0.473779082     0.852477374   0.000271496426 -0.000177952133   0.000271496426 -0.000177952133      0.477500433     0.850507624
12.66042             0.474259329     0.852187115   0.000271825839 -0.000178399359   0.000271825839 -0.000178399359      0.477978412     0.850215975
12.660448            0.474739814     0.851896321   0.000272155551 -0.000178847717   0.000272155551 -0.000178847717      0.478456627     0.849923794
12.660476            0.475220536     0.851604993    0.00027248556 -0.000179297211    0.00027248556 -0.000179297212      0.478935076     0.849631079
12.660504            0.475701496     0.851313128   0.000272815868 -0.000179747845   0.000272815868 -0.000179747845       0.47941376     0.849337829
12.660532            0.476182693     0.851020726   0.000273146472  -0.00018019962   0.000273146472  -0.00018019962      0.479892678     0.849044043
12.66056             0.476664127     0.850727787   0.000273477373 -0.000180652539   0.000273477373 -0.000180652539      0.480371831      0.84874972
12.660588            0.477145799     0.850434308    0.00027380857 -0.000181106607    0.00027380857 -0.000181106607      0.480851218      0.84845486
12.660616            0.477627707     0.850140289   0.000274140063 -0.000181561824   0.000274140063 -0.000181561824      0.481330839      0.84815946
12.660644            0.478109853      0.84984573   0.000274471851 -0.000182018196    0.00027447185 -0.000182018196      0.481810695     0.847863521
12.660672            0.478592236     0.849550628   0.000274803933 -0.000182475724   0.000274803933 -0.000182475724      0.482290785     0.847567041
12.6607              0.479074856     0.849254984   0.000275136309 -0.000182934411   0.000275136309 -0.000182934411      0.482771109     0.847270019
12.660728            0.479557713     0.848958795   0.000275468979  -0.00018339426   0.000275468979  -0.00018339426      0.483251667     0.846972454
12.660756            0.480040806     0.848662062   0.000275801941 -0.000183855275   0.000275801941 -0.000183855275      0.483732459     0.846674346
12.660784            0.480524137     0.848364783   0.000276135196 -0.000184317459   0.000276135196 -0.000184317459      0.484213485     0.846375693
12.660812            0.481007704     0.848066956   0.000276468743 -0.000184780813   0.000276468743 -0.000184780813      0.484694745     0.846076494
12.66084             0.481491508     0.847768582   0.000276802581 -0.000185245342   0.000276802581 -0.000185245342      0.485176238     0.845776748
12.660868            0.481975548     0.847469659    0.00027713671 -0.000185711048    0.00027713671 -0.000185711048      0.485657966     0.845476455
12.660896            0.482459825     0.847170186   0.000277471129 -0.000186177934   0.000277471128 -0.000186177935      0.486139927     0.845175612
12.660924            0.482944339     0.846870162   0.000277805837 -0.000186646004   0.000277805837 -0.000186646004      0.486622121      0.84487422
12.660952            0.483429089     0.846569586   0.000278140834  -0.00018711526   0.000278140834  -0.00018711526      0.487104549     0.844572277
12.66098             0.483914075     0.846268457    0.00027847612 -0.000187585706    0.00027847612 -0.000187585706      0.487587211     0.844269783
12.661008            0.484399297     0.845966774   0.000278811694 -0.000188057343   0.000278811694 -0.000188057344      0.488070105     0.843966735
12.661036            0.484884756     0.845664536   0.000279147554 -0.000188530177   0.000279147554 -0.000188530177      0.488553233     0.843663134
12.661064            0.485370451     0.845361742   0.000279483702 -0.000189004208   0.000279483702 -0.000189004209      0.489036595     0.843358978
12.661092            0.485856382     0.845058391   0.000279820135 -0.000189479442   0.000279820135 -0.000189479442      0.489520189     0.843054266
12.66112             0.486342548     0.844754481   0.000280156853  -0.00018995588   0.000280156853  -0.00018995588      0.490004016     0.842748997
12.661148            0.486828951     0.844450013   0.000280493857 -0.000190433525   0.000280493857 -0.000190433525      0.490488077     0.842443171
12.661176            0.487315589     0.844144985   0.000280831144 -0.000190912381   0.000280831144 -0.000190912381       0.49097237     0.842136785
12.661204            0.487802463     0.843839395   0.000281168715 -0.000191392451   0.000281168715 -0.000191392451      0.491456896     0.841829839
12.661232            0.488289573     0.843533243   0.000281506569 -0.000191873738   0.000281506569 -0.000191873738      0.491941655     0.841522333
12.66126             0.488776918     0.843226528   0.000281844705 -0.000192356245   0.000281844704 -0.000192356245      0.492426646     0.841214264
12.661288            0.489264499     0.842919248   0.000282183122 -0.000192839975   0.000282183122 -0.000192839975       0.49291187     0.840905633
12.661316            0.489752315     0.842611403    0.00028252182 -0.000193324932    0.00028252182 -0.000193324932      0.493397326     0.840596437
12.661344            0.490240366     0.842302992   0.000282860798 -0.000193811117   0.000282860798 -0.000193811117      0.493883015     0.840286676
12.661372            0.490728653     0.841994014   0.000283200056 -0.000194298535   0.000283200056 -0.000194298536      0.494368936      0.83997635
12.6614              0.491217174     0.841684467   0.000283539593 -0.000194787189   0.000283539593 -0.000194787189      0.494855089     0.839665456
12.661428            0.491705931      0.84137435   0.000283879408 -0.000195277082   0.000283879407 -0.000195277082      0.495341474     0.839353993
12.661456            0.492194922     0.841063663     0.0002842195 -0.000195768216     0.0002842195 -0.000195768216      0.495828092     0.839041962
12.661484            0.492684149     0.840752404   0.000284559869 -0.000196260595   0.000284559869 -0.000196260595      0.496314941      0.83872936
12.661512             0.49317361     0.840440573   0.000284900514 -0.000196754223   0.000284900513 -0.000196754223      0.496802021     0.838416187
12.66154             0.493663306     0.840128168   0.000285241434 -0.000197249102   0.000285241434 -0.000197249102      0.497289334     0.838102441
12.661568            0.494153236     0.839815188   0.000285582629 -0.000197745235   0.000285582628 -0.000197745235      0.497776878     0.837788122
12.661596            0.494643401     0.839501632   0.000285924097 -0.000198242627   0.000285924097 -0.000198242627      0.498264654     0.837473228
12.661624              0.4951338     0.839187499   0.000286265839 -0.000198741279   0.000286265839 -0.000198741279      0.498752661     0.837157759
12.661652            0.495624433     0.838872789   0.000286607853 -0.000199241195   0.000286607853 -0.000199241195      0.499240899     0.836841713
12.66168             0.496115301     0.838557499   0.000286950139 -0.000199742378   0.000286950139 -0.000199742379      0.499729368      0.83652509
12.661708            0.496606402     0.838241629   0.000287292695 -0.000200244833   0.000287292695 -0.000200244833      0.500218069     0.836207888
12.661736            0.497097738     0.837925178   0.000287635522  -0.00020074856   0.000287635522  -0.00020074856         0.500707     0.835890106
12.661764            0.497589307     0.837608145   0.000287978618 -0.000201253565   0.000287978618 -0.000201253565      0.501196163     0.835571742
12.661792             0.49808111     0.837290529   0.000288321983  -0.00020175985   0.000288321983  -0.00020175985      0.501685556     0.835252798
12.66182             0.498573147     0.836972328   0.000288665615 -0.000202267419   0.000288665615 -0.000202267419       0.50217518     0.834933269
12.661848            0.499065417     0.836653541   0.000289009515 -0.000202776274   0.000289009514 -0.000202776274      0.502665034     0.834613157
12.661876             0.49955792     0.836334168    0.00028935368 -0.000203286419    0.00028935368 -0.000203286419      0.503155119      0.83429246
12.661904            0.500050657     0.836014208   0.000289698111 -0.000203797857   0.000289698111 -0.000203797857      0.503645434     0.833971176
12.661932            0.500543627     0.835693658   0.000290042806 -0.000204310592   0.000290042806 -0.000204310592      0.504135979     0.833649305
12.66196              0.50103683     0.835372519   0.000290387766 -0.000204824627   0.000290387766 -0.000204824627      0.504626754     0.833326846
12.661988            0.501530266     0.835050789   0.000290732988 -0.000205339964   0.000290732988 -0.000205339964       0.50511776     0.833003797
12.662016            0.502023935     0.834728466   0.000291078472 -0.000205856608   0.000291078472 -0.000205856608      0.505608995     0.832680158
12.662044            0.502517837     0.834405551   0.000291424217 -0.000206374562   0.000291424217 -0.000206374562       0.50610046     0.832355926
12.662072            0.503011971     0.834082042   0.000291770223 -0.000206893828   0.000291770223 -0.000206893828      0.506592154     0.832031102
12.6621              0.503506338     0.833757937   0.000292116489 -0.000207414411   0.000292116489 -0.000207414411      0.507084078     0.831705684
12.662128            0.504000937     0.833433235   0.000292463013 -0.000207936313   0.000292463013 -0.000207936314      0.507576231     0.831379671
12.662156            0.504495768     0.833107937   0.000292809795 -0.000208459539   0.000292809794 -0.000208459539      0.508068614     0.831053062
12.662184            0.504990832     0.832782039   0.000293156833  -0.00020898409   0.000293156833  -0.00020898409      0.508561225     0.830725856
12.662212            0.505486127     0.832455542   0.000293504128 -0.000209509971   0.000293504128 -0.000209509971      0.509054066     0.830398052
12.66224             0.505981654     0.832128444   0.000293851678 -0.000210037185   0.000293851678 -0.000210037185      0.509547135     0.830069648
12.662268            0.506477413     0.831800744   0.000294199482 -0.000210565736   0.000294199482 -0.000210565736      0.510040433     0.829740644
12.662296            0.506973404     0.831472441    0.00029454754 -0.000211095625    0.00029454754 -0.000211095626       0.51053396     0.829411038
12.662324            0.507469626     0.831143534    0.00029489585 -0.000211626858   0.000294895849 -0.000211626859      0.511027715     0.829080829
12.662352            0.507966079     0.830814021   0.000295244411 -0.000212159438   0.000295244411 -0.000212159438      0.511521699     0.828750016
12.66238             0.508462764     0.830483902   0.000295593223 -0.000212693367   0.000295593223 -0.000212693367       0.51201591     0.828418599
12.662408            0.508959679     0.830153175   0.000295942284 -0.000213228649   0.000295942284 -0.000213228649       0.51251035     0.828086575
12.662436            0.509456826      0.82982184   0.000296291594 -0.000213765288   0.000296291594 -0.000213765288      0.513005017     0.827753944
12.662464            0.509954203     0.829489895   0.000296641152 -0.000214303287   0.000296641152 -0.000214303287      0.513499912     0.827420705
12.662492            0.510451811     0.829157339   0.000296990957 -0.000214842649   0.000296990957 -0.000214842649      0.513995035     0.827086856
12.66252             0.510949649      0.82882417   0.000297341007 -0.000215383379   0.000297341007 -0.000215383379      0.514490386     0.826752397
12.662548            0.511447718     0.828490389   0.000297691302 -0.000215925478   0.000297691302 -0.000215925478      0.514985963     0.826417326
12.662576            0.511946017     0.828155993   0.000298041841 -0.000216468951   0.000298041841 -0.000216468951      0.515481768     0.826081643
12.662604            0.512444547     0.827820981   0.000298392623 -0.000217013801   0.000298392623 -0.000217013801        0.5159778     0.825745345
12.662632            0.512943306     0.827485353   0.000298743646 -0.000217560032   0.000298743646 -0.000217560032      0.516474059     0.825408432
12.66266             0.513442294     0.827149107    0.00029909491 -0.000218107647    0.00029909491 -0.000218107647      0.516970544     0.825070903
12.662688            0.513941513     0.826812243   0.000299446414  -0.00021865665   0.000299446414  -0.00021865665      0.517467256     0.824732756
12.662716            0.514440961     0.826474758   0.000299798157 -0.000219207043   0.000299798157 -0.000219207043      0.517964195     0.824393991
12.662744            0.514940638     0.826136651   0.000300150137 -0.000219758831   0.000300150137 -0.000219758831      0.518461359     0.824054606
12.662772            0.515440545     0.825797923   0.000300502354 -0.000220312017   0.000300502354 -0.000220312017       0.51895875     0.823714601
12.6628               0.51594068      0.82545857   0.000300854807 -0.000220866604   0.000300854807 -0.000220866604      0.519456367     0.823373973
12.662828            0.516441045     0.825118593   0.000301207494 -0.000221422597   0.000301207494 -0.000221422597       0.51995421     0.823032722
12.662856            0.516941638      0.82477799   0.000301560414 -0.000221979997   0.000301560414 -0.000221979998      0.520452278     0.822690847
12.662884            0.517442459      0.82443676   0.000301913567  -0.00022253881   0.000301913567  -0.00022253881      0.520950572     0.822348346
12.662912            0.517943509     0.824094902   0.000302266951 -0.000223099039   0.000302266951 -0.000223099039      0.521449091     0.822005219
12.66294             0.518444787     0.823752415   0.000302620565 -0.000223660686   0.000302620565 -0.000223660686      0.521947835     0.821661464
12.662968            0.518946294     0.823409296   0.000302974408 -0.000224223756   0.000302974408 -0.000224223756      0.522446804      0.82131708
12.662996            0.519448028     0.823065546   0.000303328479 -0.000224788253   0.000303328479 -0.000224788253      0.522945998     0.820972066
12.663024             0.51994999     0.822721163   0.000303682777 -0.000225354178   0.000303682777 -0.000225354179      0.523445416     0.820626421
12.663052            0.520452179     0.822376146   0.000304037301 -0.000225921538   0.000304037301 -0.000225921538      0.523945059     0.820280143
12.66308             0.520954596     0.822030494   0.000304392049 -0.000226490334   0.000304392049 -0.000226490334      0.524444927     0.819933231
12.663108             0.52145724     0.821684205    0.00030474702  -0.00022706057    0.00030474702  -0.00022706057      0.524945018     0.819585685
12.663136            0.521960111     0.821337278   0.000305102214 -0.000227632251   0.000305102214 -0.000227632251      0.525445334     0.819237502
12.663164            0.522463209     0.820989713   0.000305457628 -0.000228205379   0.000305457628 -0.000228205379      0.525945873     0.818888683
12.663192            0.522966534     0.820641508   0.000305813263 -0.000228779958   0.000305813263 -0.000228779958      0.526446635     0.818539225
12.66322             0.523470085     0.820292661   0.000306169116 -0.000229355992   0.000306169116 -0.000229355993      0.526947622     0.818189127
12.663248            0.523973862     0.819943172   0.000306525186 -0.000229933485   0.000306525186 -0.000229933485      0.527448831     0.817838389
12.663276            0.524477866     0.819593039   0.000306881473  -0.00023051244   0.000306881473  -0.00023051244      0.527950263     0.817487008
12.663304            0.524982095     0.819242261   0.000307237975  -0.00023109286   0.000307237975  -0.00023109286      0.528451918     0.817134985
12.663332            0.525486551     0.818890837    0.00030759469  -0.00023167475    0.00030759469  -0.00023167475      0.528953796     0.816782317
12.66336             0.525991232     0.818538766   0.000307951619 -0.000232258112   0.000307951618 -0.000232258112      0.529455897     0.816429004
12.663388            0.526496138     0.818186047   0.000308308758 -0.000232842952   0.000308308758 -0.000232842952      0.529958219     0.816075043
12.663416             0.52700127     0.817832678   0.000308666107 -0.000233429271   0.000308666107 -0.000233429271      0.530460764     0.815720435
12.663444            0.527506626     0.817478657   0.000309023666 -0.000234017075   0.000309023666 -0.000234017075      0.530963531     0.815365178
12.663472            0.528012208     0.817123985   0.000309381431 -0.000234606366   0.000309381431 -0.000234606366      0.531466519      0.81500927
12.6635              0.528518014      0.81676866   0.000309739403 -0.000235197148   0.000309739403 -0.000235197148      0.531969729     0.814652711
12.663528            0.529024044      0.81641268    0.00031009758 -0.000235789426    0.00031009758 -0.000235789426       0.53247316     0.814295499
12.663556            0.529530299     0.816056044   0.000310455961 -0.000236383202   0.000310455961 -0.000236383202      0.532976813     0.813937633
12.663584            0.530036778     0.815698751   0.000310814544 -0.000236978481   0.000310814544 -0.000236978481      0.533480686     0.813579112
12.663612             0.53054348       0.8153408   0.000311173327 -0.000237575265   0.000311173327 -0.000237575265       0.53398478     0.813219934
12.66364             0.531050407     0.814982189   0.000311532311  -0.00023817356   0.000311532311  -0.00023817356      0.534489094     0.812860099
12.663668            0.531557556     0.814622917   0.000311891493 -0.000238773368   0.000311891493 -0.000238773368      0.534993629     0.812499604
12.663696            0.532064929     0.814262984   0.000312250871 -0.000239374693   0.000312250871 -0.000239374693      0.535498383      0.81213845
12.663724            0.532572525     0.813902388   0.000312610446 -0.000239977539   0.000312610445  -0.00023997754      0.536003358     0.811776634
12.663752            0.533080344     0.813541127   0.000312970214 -0.000240581911   0.000312970214 -0.000240581911      0.536508552     0.811414155
12.66378             0.533588385       0.8131792   0.000313330175  -0.00024118781   0.000313330175  -0.00024118781      0.537013966     0.811051013
12.663808            0.534096649     0.812816607   0.000313690328 -0.000241795242   0.000313690328 -0.000241795242      0.537519599     0.810687205
12.663836            0.534605135     0.812453345   0.000314050671  -0.00024240421    0.00031405067 -0.000242404211      0.538025451     0.810322731
12.663864            0.535113843     0.812089414   0.000314411202 -0.000243014718   0.000314411202 -0.000243014718      0.538531522      0.80995759
12.663892            0.535622772     0.811724812    0.00031477192  -0.00024362677    0.00031477192  -0.00024362677      0.539037811      0.80959178
12.66392             0.536131923     0.811359538   0.000315132824 -0.000244240369   0.000315132824 -0.000244240369      0.539544319     0.809225299
12.663948            0.536641296     0.810993591   0.000315493913 -0.000244855519   0.000315493913 -0.000244855519      0.540051045     0.808858148
12.663976            0.537150889     0.810626969   0.000315855184 -0.000245472225   0.000315855184 -0.000245472225      0.540557988     0.808490323
12.664004            0.537660704     0.810259672   0.000316216637 -0.000246090489   0.000316216636 -0.000246090489       0.54106515     0.808121825
12.664032            0.538170739     0.809891698   0.000316578269 -0.000246710316   0.000316578269 -0.000246710316      0.541572529     0.807752652
12.66406             0.538680994     0.809523046    0.00031694008 -0.000247331709    0.00031694008 -0.000247331709      0.542080125     0.807382802
12.664088            0.539191469     0.809153714   0.000317302067 -0.000247954673   0.000317302067 -0.000247954673      0.542587938     0.807012275
12.664116            0.539702165     0.808783701    0.00031766423  -0.00024857921    0.00031766423 -0.000248579211      0.543095968     0.806641069
12.664144             0.54021308     0.808413006   0.000318026567 -0.000249205326   0.000318026567 -0.000249205326      0.543604214     0.806269182
12.664172            0.540724214     0.808041627   0.000318389076 -0.000249833024   0.000318389076 -0.000249833024      0.544112676     0.805896614
12.6642              0.541235568     0.807669564   0.000318751756 -0.000250462308   0.000318751756 -0.000250462308      0.544621355     0.805523364
12.664228            0.541747141     0.807296815   0.000319114605 -0.000251093181   0.000319114605 -0.000251093181      0.545130249     0.805149429
12.664256            0.542258932     0.806923379   0.000319477622 -0.000251725648   0.000319477622 -0.000251725648      0.545639359     0.804774809
12.664284            0.542770942     0.806549254   0.000319840805 -0.000252359712   0.000319840805 -0.000252359712      0.546148684     0.804399503
12.664312             0.54328317      0.80617444   0.000320204152 -0.000252995377   0.000320204152 -0.000252995377      0.546658225     0.804023508
12.66434             0.543795617     0.805798934   0.000320567662 -0.000253632648   0.000320567662 -0.000253632648       0.54716798     0.803646825
12.664368            0.544308281     0.805422736   0.000320931333 -0.000254271528   0.000320931333 -0.000254271528      0.547677949     0.803269451
12.664396            0.544821162     0.805045844   0.000321295164 -0.000254912021   0.000321295164 -0.000254912021      0.548188133     0.802891385
12.664424            0.545334261     0.804668257   0.000321659153  -0.00025555413   0.000321659153  -0.00025555413      0.548698531     0.802512626
12.664452            0.545847576     0.804289974   0.000322023298 -0.000256197861   0.000322023298 -0.000256197861      0.549209143     0.802133173
12.66448             0.546361109     0.803910993   0.000322387598 -0.000256843216   0.000322387598 -0.000256843217      0.549719968     0.801753024
12.664508            0.546874858     0.803531313    0.00032275205 -0.000257490201    0.00032275205 -0.000257490201      0.550231006     0.801372178
12.664536            0.547388823     0.803150933   0.000323116654 -0.000258138818   0.000323116654 -0.000258138818      0.550742258     0.800990634
12.664564            0.547903004     0.802769851   0.000323481408 -0.000258789071   0.000323481408 -0.000258789071      0.551253722     0.800608391
12.664592              0.5484174     0.802388067    0.00032384631 -0.000259440966   0.000323846309 -0.000259440966      0.551765399     0.800225446
12.66462             0.548932012     0.802005578   0.000324211357 -0.000260094505   0.000324211357 -0.000260094505      0.552277287       0.7998418
12.664648             0.54944684     0.801622383   0.000324576549 -0.000260749692   0.000324576549 -0.000260749692      0.552789388     0.799457449
12.664676            0.549961882     0.801238482   0.000324941884 -0.000261406532   0.000324941884 -0.000261406532      0.553301701     0.799072394
12.664704            0.550477138     0.800853872    0.00032530736 -0.000262065029    0.00032530736 -0.000262065029      0.553814224     0.798686633
12.664732            0.550992609     0.800468553   0.000325672975 -0.000262725186   0.000325672975 -0.000262725187      0.554326959     0.798300164
12.66476             0.551508294     0.800082523   0.000326038727 -0.000263387008   0.000326038727 -0.000263387008      0.554839905     0.797912987
12.664788            0.552024193      0.79969578   0.000326404615 -0.000264050499   0.000326404615 -0.000264050499      0.555353061     0.797525099
12.664816            0.552540306     0.799308324   0.000326770637 -0.000264715662   0.000326770636 -0.000264715662      0.555866428       0.7971365
12.664844            0.553056631     0.798920153    0.00032713679 -0.000265382502    0.00032713679 -0.000265382502      0.556380004     0.796747188
12.664872            0.553573169     0.798531266   0.000327503074 -0.000266051023   0.000327503074 -0.000266051023       0.55689379     0.796357161
12.6649              0.554089921     0.798141661   0.000327869486 -0.000266721228   0.000327869486 -0.000266721228      0.557407786     0.795966419
12.664928            0.554606884     0.797751337   0.000328236025 -0.000267393122   0.000328236024 -0.000267393122       0.55792199     0.795574961
12.664956            0.555124059     0.797360293   0.000328602688 -0.000268066709   0.000328602687  -0.00026806671      0.558436404     0.795182784
12.664984            0.555641447     0.796968527   0.000328969473 -0.000268741994   0.000328969473 -0.000268741994      0.558951026     0.794789887
12.665012            0.556159045     0.796576037    0.00032933638 -0.000269418979    0.00032933638 -0.000269418979      0.559465856      0.79439627
12.66504             0.556676855     0.796182824   0.000329703405 -0.000270097669   0.000329703405 -0.000270097669      0.559980894      0.79400193
12.665068            0.557194876     0.795788885   0.000330070548 -0.000270778068   0.000330070547 -0.000270778068      0.560496139     0.793606867
12.665096            0.557713107     0.795394218   0.000330437805 -0.000271460181   0.000330437805 -0.000271460181      0.561011592     0.793211078
12.665124            0.558231549     0.794998823   0.000330805175 -0.000272144011   0.000330805175 -0.000272144011      0.561527252     0.792814564
12.665152              0.5587502     0.794602698   0.000331172657 -0.000272829562   0.000331172657 -0.000272829562      0.562043119     0.792417321
12.66518             0.559269061     0.794205841   0.000331540248 -0.000273516839   0.000331540248 -0.000273516839      0.562559192      0.79201935
12.665208            0.559788132     0.793808252   0.000331907946 -0.000274205846   0.000331907945 -0.000274205846      0.563075471     0.791620647
12.665236            0.560307411     0.793409929   0.000332275749 -0.000274896587   0.000332275749 -0.000274896587      0.563591956     0.791221213
12.665264            0.560826899      0.79301087   0.000332643655 -0.000275589065   0.000332643655 -0.000275589065      0.564108646     0.790821046
12.665292            0.561346596     0.792611075   0.000333011662 -0.000276283286   0.000333011662 -0.000276283286      0.564625541     0.790420144
12.66532               0.5618665     0.792210541   0.000333379768 -0.000276979253   0.000333379768 -0.000276979253      0.565142641     0.790018506
12.665348            0.562386613     0.791809267   0.000333747972  -0.00027767697   0.000333747972 -0.000277676971      0.565659946     0.789616131
12.665376            0.562906932     0.791407253    0.00033411627 -0.000278376443    0.00033411627 -0.000278376443      0.566177455     0.789213017
12.665404            0.563427459     0.791004496   0.000334484661 -0.000279077673   0.000334484661 -0.000279077673      0.566695167     0.788809163