! TOUCHSTONE file generated by CST MICROWAVE STUDIO
! Date and time: Wed Jul 31 15:41:39 2024
! Project name: WaveGuide_BPF-Ver4.1_U-shape_Ku_T3_C4_CWA_2.cst
! Parameters = {cavity_h=16; cavity_l0=10; cavity_l1=15.1613; cavity_l2=16.8263; cavity_l3=17.095; cavity_l4=17.2799; cavity_l5=17.1021; cavity_l6=17.5958; cavity_r=2.5; cavity_screw_l=0.5; cavity_screw_r=1.5; cavity_w=8; iris_h00=0; iris_h01=8.8112; iris_h112=0; iris_h12=5.588; iris_h211=3.6639; iris_h23=5.2108; iris_h310=3.9663; iris_h34=5.0833; iris_h45=4.9348; iris_h49=4.6202; iris_h56=4.7926; iris_h58=4.4443; iris_h67=6.565; iris_rx=0.1; iris_screw_l=0.5; iris_screw_r=1.5; iris_shift00=0; iris_shift112=0; iris_shift211=3.5; iris_shift310=0; iris_shift49=0; iris_shift58=3.5; iris_shift67=3.5; iris_tx=4.5; iris_tz=4.5; iris_w00=0; iris_w112=0; iris_w211=4; iris_w310=3.9663; iris_w49=4.6202; iris_w58=4; iris_w67=4; mesh_cavity=5; mesh_iris=7; mesh_screw=7; order=12; reset_all=0; sigma=4.8e+07}
! Header version: 2018
! Port assignment regex: !\s*Touchstone port\s*([0-9]+)\s*=\s*(CST MWS port|CST DS port)\s*([0-9]+|Zmin|Zmax)\s*\(\"(.*)\"\)(\s*mode\s*([0-9]+))?.*
! Touchstone port assignment:
! Touchstone port 1 = CST MWS port 1 ("")
! Touchstone port 2 = CST MWS port 2 ("")
# GHz S RI R 50
12.66                0.166884596     0.971683357   0.000142993587 -3.41286235e-05   0.000142993586 -3.41286234e-05      0.171346602     0.970886889
12.660028             0.16718534     0.971623769   0.000143182791 -3.42239362e-05   0.000143182791 -3.42239361e-05      0.171648786     0.970825591
12.660056            0.167486422     0.971564018   0.000143372287 -3.43194976e-05   0.000143372286 -3.43194975e-05      0.171951059      0.97076417
12.660084            0.167787766     0.971504115   0.000143562074 -3.44153053e-05   0.000143562074 -3.44153052e-05      0.172253453      0.97070262
12.660112            0.168089299     0.971444074   0.000143752157 -3.45113572e-05   0.000143752156 -3.45113571e-05         0.172556     0.970640936
12.66014             0.168390947     0.971383906   0.000143942535 -3.46076508e-05   0.000143942535 -3.46076507e-05      0.172858733     0.970579111
12.660168            0.168692709     0.971323611   0.000144133209 -3.47041869e-05   0.000144133209 -3.47041868e-05      0.173161653     0.970517146
12.660196            0.168994636     0.971263182    0.00014432418  -3.4800968e-05    0.00014432418 -3.48009679e-05      0.173464736     0.970455044
12.660224            0.169296726     0.971202617   0.000144515448 -3.48979948e-05   0.000144515448 -3.48979947e-05      0.173767985     0.970392804
12.660252            0.169598982     0.971141917   0.000144707013  -3.4995268e-05   0.000144707013 -3.49952679e-05      0.174071398     0.970330427
12.66028             0.169901401      0.97108108   0.000144898876 -3.50927882e-05   0.000144898875 -3.50927881e-05      0.174374977     0.970267912
12.660308            0.170203986     0.971020108   0.000145091036  -3.5190556e-05   0.000145091036 -3.51905559e-05      0.174678721     0.970205259
12.660336            0.170506736     0.970958999   0.000145283496 -3.52885723e-05   0.000145283496 -3.52885722e-05       0.17498263     0.970142468
12.660364             0.17080965     0.970897754   0.000145476255 -3.53868375e-05   0.000145476255 -3.53868374e-05      0.175286704     0.970079539
12.660392             0.17111273     0.970836372   0.000145669313 -3.54853524e-05   0.000145669313 -3.54853523e-05      0.175590944     0.970016471
12.66042             0.171415975     0.970774854   0.000145862672 -3.55841176e-05   0.000145862672 -3.55841175e-05       0.17589535     0.969953264
12.660448            0.171719386     0.970713198   0.000146056332 -3.56831339e-05   0.000146056332 -3.56831338e-05      0.176199922     0.969889918
12.660476            0.172022962     0.970651404   0.000146250293 -3.57824018e-05   0.000146250293 -3.57824017e-05      0.176504659     0.969826433
12.660504            0.172326705     0.970589473   0.000146444556 -3.58819222e-05   0.000146444555  -3.5881922e-05      0.176809563     0.969762808
12.660532            0.172630613     0.970527404   0.000146639121 -3.59816955e-05   0.000146639121 -3.59816954e-05      0.177114633     0.969699044
12.66056             0.172934687     0.970465198   0.000146833989 -3.60817226e-05   0.000146833988 -3.60817225e-05       0.17741987     0.969635139
12.660588            0.173238927     0.970402852    0.00014702916  -3.6182004e-05    0.00014702916 -3.61820039e-05      0.177725273     0.969571094
12.660616            0.173543334     0.970340369   0.000147224635 -3.62825406e-05   0.000147224635 -3.62825404e-05      0.178030843     0.969506909
12.660644            0.173847908     0.970277746   0.000147420415 -3.63833329e-05   0.000147420415 -3.63833327e-05       0.17833658     0.969442584
12.660672            0.174152647     0.970214985   0.000147616499 -3.64843816e-05   0.000147616499 -3.64843815e-05      0.178642484     0.969378117
12.6607              0.174457554     0.970152085   0.000147812889 -3.65856875e-05   0.000147812889 -3.65856874e-05      0.178948555     0.969313509
12.660728            0.174762628     0.970089045   0.000148009585 -3.66872512e-05   0.000148009585 -3.66872511e-05      0.179254793      0.96924876
12.660756            0.175067869     0.970025865   0.000148206588 -3.67890734e-05   0.000148206588 -3.67890733e-05      0.179561199      0.96918387
12.660784            0.175373277     0.969962546   0.000148403897 -3.68911549e-05   0.000148403897 -3.68911548e-05      0.179867772     0.969118837
12.660812            0.175678852     0.969899087   0.000148601514 -3.69934962e-05   0.000148601514 -3.69934961e-05      0.180174513     0.969053663
12.66084             0.175984595     0.969835487   0.000148799439 -3.70960982e-05   0.000148799439 -3.70960981e-05      0.180481422     0.968988346
12.660868            0.176290505     0.969771747   0.000148997673 -3.71989614e-05   0.000148997673 -3.71989613e-05      0.180788499     0.968922887
12.660896            0.176596584     0.969707866   0.000149196216 -3.73020867e-05   0.000149196216 -3.73020866e-05      0.181095744     0.968857285
12.660924             0.17690283     0.969643844   0.000149395068 -3.74054747e-05   0.000149395068 -3.74054746e-05      0.181403157      0.96879154
12.660952            0.177209244     0.969579681   0.000149594231 -3.75091261e-05   0.000149594231  -3.7509126e-05      0.181710739     0.968725652
12.66098             0.177515827     0.969515376   0.000149793704 -3.76130416e-05   0.000149793704 -3.76130415e-05      0.182018489     0.968659621
12.661008            0.177822578      0.96945093   0.000149993489  -3.7717222e-05   0.000149993489 -3.77172219e-05      0.182326408     0.968593446
12.661036            0.178129497     0.969386341   0.000150193585 -3.78216679e-05   0.000150193585 -3.78216678e-05      0.182634496     0.968527127
12.661064            0.178436585     0.969321611   0.000150393994 -3.79263801e-05   0.000150393994   -3.792638e-05      0.182942753     0.968460664
12.661092            0.178743842     0.969256738   0.000150594715 -3.80313593e-05   0.000150594715 -3.80313592e-05      0.183251179     0.968394057
12.66112             0.179051268     0.969191723    0.00015079575 -3.81366062e-05    0.00015079575  -3.8136606e-05      0.183559775     0.968327305
12.661148            0.179358863     0.969126565   0.000150997099 -3.82421214e-05   0.000150997098 -3.82421213e-05      0.183868539     0.968260408
12.661176            0.179666628     0.969061264   0.000151198762 -3.83479059e-05   0.000151198762 -3.83479058e-05      0.184177474     0.968193366
12.661204            0.179974561     0.968995819    0.00015140074 -3.84539602e-05    0.00015140074   -3.845396e-05      0.184486578     0.968126179
12.661232            0.180282664     0.968930231   0.000151603033 -3.85602851e-05   0.000151603033 -3.85602849e-05      0.184795852     0.968058847
12.66126             0.180590937     0.968864499   0.000151805643 -3.86668813e-05   0.000151805643 -3.86668811e-05      0.185105296     0.967991368
12.661288             0.18089938     0.968798623   0.000152008569 -3.87737495e-05   0.000152008569 -3.87737494e-05      0.185414911     0.967923744
12.661316            0.181207993     0.968732603   0.000152211813 -3.88808906e-05   0.000152211812 -3.88808905e-05      0.185724695     0.967855974
12.661344            0.181516776     0.968666439   0.000152415374 -3.89883052e-05   0.000152415374 -3.89883051e-05       0.18603465     0.967788057
12.661372            0.181825729     0.968600129   0.000152619253  -3.9095994e-05   0.000152619253 -3.90959939e-05      0.186344776     0.967719993
12.6614              0.182134852     0.968533675   0.000152823451 -3.92039578e-05   0.000152823451 -3.92039577e-05      0.186655072     0.967651782
12.661428            0.182444146     0.968467076   0.000153027968 -3.93121974e-05   0.000153027968 -3.93121973e-05       0.18696554     0.967583424
12.661456            0.182753611     0.968400331   0.000153232805 -3.94207135e-05   0.000153232805 -3.94207134e-05      0.187276178     0.967514919
12.661484            0.183063247     0.968333441   0.000153437963 -3.95295068e-05   0.000153437963 -3.95295067e-05      0.187586988     0.967446266
12.661512            0.183373053     0.968266404   0.000153643441 -3.96385781e-05   0.000153643441  -3.9638578e-05      0.187897968     0.967377465
12.66154             0.183683031     0.968199222   0.000153849241 -3.97479281e-05   0.000153849241  -3.9747928e-05      0.188209121     0.967308516
12.661568             0.18399318     0.968131893   0.000154055363 -3.98575576e-05   0.000154055363 -3.98575575e-05      0.188520445     0.967239419
12.661596            0.184303501     0.968064417   0.000154261808 -3.99674673e-05   0.000154261807 -3.99674672e-05      0.188831941     0.967170173
12.661624            0.184613993     0.967996795   0.000154468575  -4.0077658e-05   0.000154468575 -4.00776579e-05      0.189143608     0.967100778
12.661652            0.184924657     0.967929026   0.000154675667 -4.01881305e-05   0.000154675666 -4.01881304e-05      0.189455448     0.967031234
12.66168             0.185235493     0.967861109   0.000154883082 -4.02988855e-05   0.000154883082 -4.02988854e-05       0.18976746     0.966961541
12.661708            0.185546501     0.967793045   0.000155090823 -4.04099238e-05   0.000155090822 -4.04099237e-05      0.190079645     0.966891698
12.661736            0.185857681     0.967724832   0.000155298888 -4.05212461e-05   0.000155298888  -4.0521246e-05      0.190392001     0.966821705
12.661764            0.186169033     0.967656472    0.00015550728 -4.06328532e-05    0.00015550728 -4.06328531e-05      0.190704531     0.966751562
12.661792            0.186480558     0.967587964   0.000155715998 -4.07447459e-05   0.000155715998 -4.07447458e-05      0.191017233     0.966681269
12.66182             0.186792256     0.967519307   0.000155925043  -4.0856925e-05   0.000155925043 -4.08569249e-05      0.191330109     0.966610825
12.661848            0.187104126     0.967450501   0.000156134415 -4.09693912e-05   0.000156134415 -4.09693911e-05      0.191643157      0.96654023
12.661876            0.187416169     0.967381546   0.000156344116 -4.10821453e-05   0.000156344116 -4.10821452e-05      0.191956379     0.966469484
12.661904            0.187728386     0.967312442   0.000156554145 -4.11951881e-05   0.000156554145  -4.1195188e-05      0.192269774     0.966398587
12.661932            0.188040775     0.967243188   0.000156764504 -4.13085204e-05   0.000156764504 -4.13085203e-05      0.192583343     0.966327539
12.66196             0.188353338     0.967173784   0.000156975192 -4.14221429e-05   0.000156975192 -4.14221428e-05      0.192897085     0.966256338
12.661988            0.188666075     0.967104231   0.000157186211 -4.15360565e-05   0.000157186211 -4.15360563e-05      0.193211001     0.966184986
12.662016            0.188978985     0.967034527   0.000157397561 -4.16502618e-05   0.000157397561 -4.16502617e-05      0.193525091     0.966113481
12.662044            0.189292069     0.966964673   0.000157609242 -4.17647598e-05   0.000157609242 -4.17647597e-05      0.193839356     0.966041823
12.662072            0.189605327     0.966894668   0.000157821255 -4.18795513e-05   0.000157821255 -4.18795511e-05      0.194153794     0.965970013
12.6621              0.189918759     0.966824512   0.000158033601 -4.19946369e-05   0.000158033601 -4.19946368e-05      0.194468407     0.965898049
12.662128            0.190232366     0.966754204    0.00015824628 -4.21100175e-05    0.00015824628 -4.21100174e-05      0.194783195     0.965825933
12.662156            0.190546147     0.966683746   0.000158459293 -4.22256939e-05   0.000158459293 -4.22256938e-05      0.195098157     0.965753662
12.662184            0.190860102     0.966613135    0.00015867264 -4.23416669e-05    0.00015867264 -4.23416668e-05      0.195413295     0.965681238
12.662212            0.191174232     0.966542372   0.000158886322 -4.24579374e-05   0.000158886322 -4.24579373e-05      0.195728607      0.96560866
12.66224             0.191488538     0.966471458   0.000159100339  -4.2574506e-05   0.000159100339 -4.25745059e-05      0.196044095     0.965535927
12.662268            0.191803018      0.96640039   0.000159314693 -4.26913737e-05   0.000159314692 -4.26913736e-05      0.196359757      0.96546304
12.662296            0.192117673      0.96632917   0.000159529383 -4.28085412e-05   0.000159529382 -4.28085411e-05      0.196675596     0.965389998
12.662324            0.192432504     0.966257797    0.00015974441 -4.29260094e-05    0.00015974441 -4.29260093e-05       0.19699161     0.965316801
12.662352             0.19274751      0.96618627   0.000159959775 -4.30437791e-05   0.000159959775 -4.30437789e-05        0.1973078     0.965243448
12.66238             0.193062692      0.96611459   0.000160175478  -4.3161851e-05   0.000160175478 -4.31618509e-05      0.197624165      0.96516994
12.662408             0.19337805     0.966042757    0.00016039152  -4.3280226e-05    0.00016039152 -4.32802259e-05      0.197940707     0.965096276
12.662436            0.193693583     0.965970769   0.000160607902  -4.3398905e-05   0.000160607902 -4.33989049e-05      0.198257425     0.965022455
12.662464            0.194009293     0.965898627   0.000160824624 -4.35178887e-05   0.000160824623 -4.35178886e-05       0.19857432     0.964948479
12.662492            0.194325179      0.96582633   0.000161041686  -4.3637178e-05   0.000161041686 -4.36371779e-05      0.198891391     0.964874346
12.66252             0.194641241     0.965753879    0.00016125909 -4.37567738e-05   0.000161259089 -4.37567736e-05      0.199208638     0.964800055
12.662548             0.19495748     0.965681272   0.000161476835 -4.38766768e-05   0.000161476835 -4.38766766e-05      0.199526063     0.964725608
12.662576            0.195273896     0.965608511   0.000161694923 -4.39968878e-05   0.000161694922 -4.39968877e-05      0.199843665     0.964651003
12.662604            0.195590489     0.965535593   0.000161913353 -4.41174078e-05   0.000161913353 -4.41174077e-05      0.200161443     0.964576241
12.662632            0.195907258      0.96546252   0.000162132127 -4.42382376e-05   0.000162132127 -4.42382375e-05      0.200479399      0.96450132
12.66266             0.196224205     0.965389291   0.000162351246 -4.43593779e-05   0.000162351246 -4.43593778e-05      0.200797533     0.964426241
12.662688            0.196541329     0.965315905   0.000162570709 -4.44808298e-05   0.000162570709 -4.44808296e-05      0.201115844     0.964351004
12.662716            0.196858631     0.965242363   0.000162790517 -4.46025939e-05   0.000162790517 -4.46025938e-05      0.201434333     0.964275608
12.662744             0.19717611     0.965168664   0.000163010671 -4.47246712e-05   0.000163010671 -4.47246711e-05         0.201753     0.964200054
12.662772            0.197493767     0.965094808   0.000163231172 -4.48470625e-05   0.000163231172 -4.48470623e-05      0.202071845     0.964124339
12.6628              0.197811602     0.965020794    0.00016345202 -4.49697686e-05   0.000163452019 -4.49697685e-05      0.202390868     0.964048466
12.662828            0.198129616     0.964946623   0.000163673215 -4.50927905e-05   0.000163673215 -4.50927903e-05      0.202710069     0.963972432
12.662856            0.198447807     0.964872293   0.000163894758 -4.52161289e-05   0.000163894758 -4.52161288e-05      0.203029449     0.963896238
12.662884            0.198766177     0.964797806   0.000164116651 -4.53397848e-05   0.000164116651 -4.53397847e-05      0.203349008     0.963819885
12.662912            0.199084725      0.96472316   0.000164338893  -4.5463759e-05   0.000164338892 -4.54637589e-05      0.203668745      0.96374337
12.66294             0.199403452     0.964648356   0.000164561484 -4.55880524e-05   0.000164561484 -4.55880522e-05      0.203988662     0.963666695
12.662968            0.199722358     0.964573392   0.000164784427 -4.57126658e-05   0.000164784427 -4.57126656e-05      0.204308758     0.963589858
12.662996            0.200041443     0.964498269    0.00016500772 -4.58376001e-05    0.00016500772    -4.58376e-05      0.204629033      0.96351286
12.663024            0.200360707     0.964422987   0.000165231366 -4.59628562e-05   0.000165231366 -4.59628561e-05      0.204949487     0.963435701
12.663052            0.200680151     0.964347545   0.000165455364 -4.60884351e-05   0.000165455363 -4.60884349e-05      0.205270121     0.963358379
12.66308             0.200999774     0.964271943   0.000165679714 -4.62143374e-05   0.000165679714 -4.62143373e-05      0.205590935     0.963280895
12.663108            0.201319577     0.964196181   0.000165904419 -4.63405642e-05   0.000165904419 -4.63405641e-05      0.205911928     0.963203249
12.663136            0.201639559     0.964120258   0.000166129477 -4.64671163e-05   0.000166129477 -4.64671162e-05      0.206233102      0.96312544
12.663164            0.201959722     0.964044174   0.000166354891 -4.65939947e-05   0.000166354891 -4.65939945e-05      0.206554456     0.963047468
12.663192            0.202280064     0.963967929   0.000166580659 -4.67212001e-05   0.000166580659    -4.67212e-05       0.20687599     0.962969333
12.66322             0.202600587     0.963891523   0.000166806784 -4.68487335e-05   0.000166806784 -4.68487334e-05      0.207197705     0.962891034
12.663248            0.202921291     0.963814955   0.000167033266 -4.69765959e-05   0.000167033265 -4.69765958e-05      0.207519601     0.962812571
12.663276            0.203242175     0.963738225   0.000167260104  -4.7104788e-05   0.000167260104 -4.71047879e-05      0.207841677     0.962733945
12.663304            0.203563239     0.963661333     0.0001674873 -4.72333108e-05     0.0001674873 -4.72333107e-05      0.208163935     0.962655153
12.663332            0.203884485     0.963584279   0.000167714855 -4.73621653e-05   0.000167714855 -4.73621651e-05      0.208486373     0.962576197
12.66336             0.204205912     0.963507062   0.000167942769 -4.74913522e-05   0.000167942769 -4.74913521e-05      0.208808993     0.962497077
12.663388             0.20452752     0.963429681   0.000168171042 -4.76208725e-05   0.000168171042 -4.76208724e-05      0.209131795     0.962417791
12.663416            0.204849309     0.963352138   0.000168399676 -4.77507272e-05   0.000168399676 -4.77507271e-05      0.209454778     0.962338339
12.663444             0.20517128     0.963274431    0.00016862867 -4.78809171e-05    0.00016862867  -4.7880917e-05      0.209777942     0.962258722
12.663472            0.205493433      0.96319656   0.000168858026 -4.80114432e-05   0.000168858026 -4.80114431e-05      0.210101289     0.962178939
12.6635              0.205815767     0.963118525   0.000169087744 -4.81423064e-05   0.000169087744 -4.81423062e-05      0.210424818     0.962098989
12.663528            0.206138283     0.963040326   0.000169317825 -4.82735075e-05   0.000169317825 -4.82735074e-05      0.210748529     0.962018873
12.663556            0.206460982     0.962961962   0.000169548269 -4.84050476e-05   0.000169548269 -4.84050475e-05      0.211072422      0.96193859
12.663584            0.206783863     0.962883433   0.000169779077 -4.85369276e-05   0.000169779077 -4.85369275e-05      0.211396498     0.961858139
12.663612            0.207106926     0.962804739   0.000170010249 -4.86691484e-05   0.000170010249 -4.86691482e-05      0.211720757     0.961777522
12.66364             0.207430173     0.962725879   0.000170241787 -4.88017108e-05   0.000170241787 -4.88017107e-05      0.212045199     0.961696736
12.663668            0.207753602     0.962646854    0.00017047369  -4.8934616e-05    0.00017047369 -4.89346159e-05      0.212369823     0.961615783
12.663696            0.208077213     0.962567662    0.00017070596 -4.90678647e-05    0.00017070596 -4.90678646e-05      0.212694631     0.961534661
12.663724            0.208401008     0.962488304   0.000170938597  -4.9201458e-05   0.000170938597 -4.92014579e-05      0.213019623     0.961453371
12.663752            0.208724987      0.96240878   0.000171171601 -4.93353968e-05   0.000171171601 -4.93353967e-05      0.213344797     0.961371911
12.66378             0.209049149     0.962329089   0.000171404974  -4.9469682e-05   0.000171404974 -4.94696819e-05      0.213670156     0.961290283
12.663808            0.209373494      0.96224923   0.000171638715 -4.96043146e-05   0.000171638715 -4.96043145e-05      0.213995698     0.961208485
12.663836            0.209698023     0.962169204   0.000171872826 -4.97392956e-05   0.000171872826 -4.97392954e-05      0.214321424     0.961126518
12.663864            0.210022736     0.962089011   0.000172107307 -4.98746258e-05   0.000172107307 -4.98746257e-05      0.214647334     0.961044381
12.663892            0.210347633     0.962008649   0.000172342159 -5.00103063e-05   0.000172342159 -5.00103062e-05      0.214973429     0.960962073
12.66392             0.210672715     0.961928119   0.000172577382  -5.0146338e-05   0.000172577382 -5.01463379e-05      0.215299708     0.960879595
12.663948            0.210997981     0.961847421   0.000172812977 -5.02827219e-05   0.000172812977 -5.02827218e-05      0.215626172     0.960796945
12.663976            0.211323431     0.961766553   0.000173048945  -5.0419459e-05   0.000173048945 -5.04194589e-05       0.21595282     0.960714125
12.664004            0.211649066     0.961685517   0.000173285286 -5.05565502e-05   0.000173285286   -5.055655e-05      0.216279654     0.960631134
12.664032            0.211974886     0.961604311   0.000173522001 -5.06939965e-05   0.000173522001 -5.06939963e-05      0.216606672      0.96054797
12.66406             0.212300891     0.961522935   0.000173759091 -5.08317988e-05    0.00017375909 -5.08317987e-05      0.216933876     0.960464635
12.664088            0.212627082     0.961441389   0.000173996555 -5.09699582e-05   0.000173996555 -5.09699581e-05      0.217261265     0.960381127
12.664116            0.212953457     0.961359673   0.000174234396 -5.11084756e-05   0.000174234395 -5.11084755e-05       0.21758884     0.960297447
12.664144            0.213280019     0.961277787   0.000174472612 -5.12473521e-05   0.000174472612  -5.1247352e-05        0.2179166     0.960213594
12.664172            0.213606765     0.961195729   0.000174711206 -5.13865885e-05   0.000174711206 -5.13865884e-05      0.218244547     0.960129567
12.6642              0.213933698     0.961113501   0.000174950178  -5.1526186e-05   0.000174950177 -5.15261859e-05      0.218572679     0.960045367
12.664228            0.214260817     0.961031101   0.000175189527 -5.16661454e-05   0.000175189527 -5.16661453e-05      0.218900998     0.959960994
12.664256            0.214588122     0.960948529   0.000175429256 -5.18064679e-05   0.000175429256 -5.18064677e-05      0.219229503     0.959876446
12.664284            0.214915613     0.960865785   0.000175669364 -5.19471543e-05   0.000175669364 -5.19471542e-05      0.219558195     0.959791724
12.664312            0.215243291     0.960782868   0.000175909853 -5.20882057e-05   0.000175909853 -5.20882056e-05      0.219887073     0.959706828
12.66434             0.215571156      0.96069978   0.000176150723 -5.22296231e-05   0.000176150722  -5.2229623e-05      0.220216138     0.959621756
12.664368            0.215899207     0.960616518   0.000176391973 -5.23714075e-05   0.000176391973 -5.23714074e-05       0.22054539     0.959536509
12.664396            0.216227446     0.960533083   0.000176633607 -5.25135599e-05   0.000176633606 -5.25135598e-05       0.22087483     0.959451087
12.664424            0.216555871     0.960449474   0.000176875623 -5.26560814e-05   0.000176875622 -5.26560812e-05      0.221204456     0.959365489
12.664452            0.216884484     0.960365692   0.000177118022 -5.27989729e-05   0.000177118022 -5.27989727e-05      0.221534271     0.959279714
12.66448             0.217213285     0.960281736   0.000177360805 -5.29422354e-05   0.000177360805 -5.29422353e-05      0.221864272     0.959193764
12.664508            0.217542273     0.960197605   0.000177603974 -5.30858701e-05   0.000177603973 -5.30858699e-05      0.222194462     0.959107636
12.664536            0.217871449     0.960113299   0.000177847527 -5.32298778e-05   0.000177847527 -5.32298777e-05       0.22252484     0.959021332
12.664564            0.218200813     0.960028819   0.000178091467 -5.33742597e-05   0.000178091467 -5.33742596e-05      0.222855406      0.95893485
12.664592            0.218530365     0.959944163   0.000178335793 -5.35190168e-05   0.000178335793 -5.35190167e-05       0.22318616      0.95884819
12.66462             0.218860105     0.959859332   0.000178580507 -5.36641501e-05   0.000178580507   -5.366415e-05      0.223517103     0.958761353
12.664648            0.219190034     0.959774324   0.000178825608 -5.38096607e-05   0.000178825608 -5.38096606e-05      0.223848234     0.958674338
12.664676            0.219520151     0.959689141   0.000179071099 -5.39555496e-05   0.000179071098 -5.39555494e-05      0.224179554     0.958587143
12.664704            0.219850457     0.959603781   0.000179316978 -5.41018177e-05   0.000179316978 -5.41018176e-05      0.224511063      0.95849977
12.664732            0.220180953     0.959518244   0.000179563248 -5.42484663e-05   0.000179563247 -5.42484662e-05      0.224842761     0.958412218
12.66476             0.220511637      0.95943253   0.000179809908 -5.43954963e-05   0.000179809907 -5.43954962e-05      0.225174649     0.958324487
12.664788            0.220842511     0.959346639   0.000180056959 -5.45429088e-05   0.000180056959 -5.45429087e-05      0.225506726     0.958236575
12.664816            0.221173574      0.95926057   0.000180304402 -5.46907049e-05   0.000180304402 -5.46907048e-05      0.225838992     0.958148484
12.664844            0.221504827     0.959174323   0.000180552238 -5.48388856e-05   0.000180552238 -5.48388854e-05      0.226171449     0.958060212
12.664872            0.221836269     0.959087898   0.000180800467 -5.49874519e-05   0.000180800467 -5.49874518e-05      0.226504095      0.95797176
12.6649              0.222167902     0.959001294    0.00018104909  -5.5136405e-05    0.00018104909 -5.51364048e-05      0.226836931     0.957883126
12.664928            0.222499725     0.958914511   0.000181298108 -5.52857459e-05   0.000181298107 -5.52857457e-05      0.227169958     0.957794311
12.664956            0.222831738     0.958827549    0.00018154752 -5.54354756e-05    0.00018154752 -5.54354755e-05      0.227503175     0.957705315
12.664984            0.223163941     0.958740408   0.000181797329 -5.55855954e-05   0.000181797328 -5.55855952e-05      0.227836583     0.957616137
12.665012            0.223496335     0.958653087   0.000182047534 -5.57361061e-05   0.000182047534  -5.5736106e-05      0.228170181     0.957526776
12.66504              0.22382892     0.958565585   0.000182298136  -5.5887009e-05   0.000182298136 -5.58870089e-05      0.228503971     0.957437233
12.665068            0.224161696     0.958477903   0.000182549136 -5.60383051e-05   0.000182549136  -5.6038305e-05      0.228837951     0.957347507
12.665096            0.224494663      0.95839004   0.000182800535 -5.61899955e-05   0.000182800535 -5.61899954e-05      0.229172123     0.957257598
12.665124            0.224827822     0.958301997   0.000183052333 -5.63420813e-05   0.000183052332 -5.63420812e-05      0.229506487     0.957167506
12.665152            0.225161171     0.958213771    0.00018330453 -5.64945636e-05    0.00018330453 -5.64945634e-05      0.229841041      0.95707723
12.66518             0.225494713     0.958125365   0.000183557129 -5.66474434e-05   0.000183557128 -5.66474433e-05      0.230175788     0.956986769
12.665208            0.225828446     0.958036776   0.000183810128 -5.68007219e-05   0.000183810128 -5.68007218e-05      0.230510727     0.956896124
12.665236            0.226162371     0.957948004   0.000184063529 -5.69544003e-05   0.000184063529 -5.69544001e-05      0.230845857     0.956805295
12.665264            0.226496489     0.957859051   0.000184317333 -5.71084795e-05   0.000184317333 -5.71084793e-05       0.23118118      0.95671428
12.665292            0.226830798     0.957769914    0.00018457154 -5.72629607e-05    0.00018457154 -5.72629606e-05      0.231516695      0.95662308
12.66532             0.227165301     0.957680594   0.000184826151 -5.74178451e-05   0.000184826151 -5.74178449e-05      0.231852403     0.956531694
12.665348            0.227499995      0.95759109   0.000185081167 -5.75731337e-05   0.000185081167 -5.75731335e-05      0.232188304     0.956440122
12.665376            0.227834883     0.957501403   0.000185336588 -5.77288276e-05   0.000185336588 -5.77288275e-05      0.232524398     0.956348364
12.665404            0.228169964     0.957411531   0.000185592415 -5.78849281e-05   0.000185592414 -5.78849279e-05      0.232860684      0.95625642