! TOUCHSTONE file generated by CST MICROWAVE STUDIO
! Date and time: Wed Jul 31 16:10:03 2024
! Project name: WaveGuide_BPF-Ver4.1_U-shape_Ku_T3_C4_CWA_2.cst
! Parameters = {cavity_h=16; cavity_l0=10; cavity_l1=15.2101; cavity_l2=16.8321; cavity_l3=17.0776; cavity_l4=17.2625; cavity_l5=17.1082; cavity_l6=17.6016; cavity_r=2.5; cavity_screw_l=0.5; cavity_screw_r=1.5; cavity_w=8; iris_h00=0; iris_h01=8.835; iris_h112=0; iris_h12=5.6132; iris_h211=3.6596; iris_h23=5.2022; iris_h310=3.9664; iris_h34=5.0813; iris_h45=4.9254; iris_h49=4.6282; iris_h56=4.8101; iris_h58=4.4471; iris_h67=6.588; iris_rx=0.1; iris_screw_l=0.5; iris_screw_r=1.5; iris_shift00=0; iris_shift112=0; iris_shift211=3.5; iris_shift310=0; iris_shift49=0; iris_shift58=3.5; iris_shift67=3.5; iris_tx=4.5; iris_tz=4.5; iris_w00=0; iris_w112=0; iris_w211=4; iris_w310=3.9664; iris_w49=4.6282; iris_w58=4; iris_w67=4; mesh_cavity=5; mesh_iris=7; mesh_screw=7; order=12; reset_all=0; sigma=4.8e+07}
! Header version: 2018
! Port assignment regex: !\s*Touchstone port\s*([0-9]+)\s*=\s*(CST MWS port|CST DS port)\s*([0-9]+|Zmin|Zmax)\s*\(\"(.*)\"\)(\s*mode\s*([0-9]+))?.*
! Touchstone port assignment:
! Touchstone port 1 = CST MWS port 1 ("")
! Touchstone port 2 = CST MWS port 2 ("")
# GHz S RI R 50
12.66                 0.43759906     0.873702777   0.000261869364 -0.000155717005   0.000261869364 -0.000155717005      0.440020128     0.872586107
12.660028            0.438052973     0.873455629   0.000262205097 -0.000156112681   0.000262205097 -0.000156112681      0.440471798     0.872338623
12.660056            0.438507191     0.873207998   0.000262541212   -0.0001565094   0.000262541213   -0.0001565094       0.44092375     0.872090669
12.660084            0.438961682     0.872959897   0.000262877718 -0.000156907161   0.000262877718 -0.000156907161      0.441375961     0.871842253
12.660112            0.439416415     0.872711342   0.000263214622 -0.000157305959   0.000263214623 -0.000157305959      0.441828409     0.871593386
12.66014             0.439871359     0.872462347   0.000263551935 -0.000157705794   0.000263551935 -0.000157705794      0.442281071     0.871344078
12.660168            0.440326512     0.872212911   0.000263889655 -0.000158106666   0.000263889656 -0.000158106667      0.442733947     0.871094329
12.660196            0.440781897     0.871963024   0.000264227778 -0.000158508584   0.000264227778 -0.000158508585      0.443187052     0.870844131
12.660224            0.441237513     0.871712684   0.000264566303  -0.00015891155   0.000264566303 -0.000158911551      0.443640386     0.870593482
12.660252             0.44169336      0.87146189    0.00026490523 -0.000159315567   0.000264905231 -0.000159315567      0.444093949     0.870342382
12.66028             0.442149439     0.871210643    0.00026524456 -0.000159720638   0.000265244561 -0.000159720638      0.444547742     0.870090831
12.660308            0.442605749      0.87095894   0.000265584293 -0.000160126765   0.000265584293 -0.000160126765      0.445001764     0.869838826
12.660336             0.44306229     0.870706782   0.000265924428 -0.000160533952   0.000265924428 -0.000160533952      0.445456015     0.869586368
12.660364            0.443519063     0.870454167   0.000266264966 -0.000160942202   0.000266264966 -0.000160942202      0.445910495     0.869333456
12.660392            0.443976066     0.870201094   0.000266605906 -0.000161351516   0.000266605907 -0.000161351517      0.446365204     0.869080088
12.66042             0.444433301     0.869947564    0.00026694725   -0.0001617619    0.00026694725   -0.0001617619      0.446820142     0.868826265
12.660448            0.444890768     0.869693574   0.000267288996 -0.000162173354   0.000267288996 -0.000162173355       0.44727531     0.868571985
12.660476            0.445348465     0.869439125   0.000267631145 -0.000162585883   0.000267631146 -0.000162585884      0.447730707     0.868317247
12.660504            0.445806394     0.869184215   0.000267973698  -0.00016299949   0.000267973698  -0.00016299949      0.448186333     0.868062051
12.660532            0.446264554     0.868928844   0.000268316653 -0.000163414176   0.000268316654 -0.000163414176      0.448642188     0.867806396
12.66056             0.446722946      0.86867301   0.000268660012 -0.000163829946   0.000268660012 -0.000163829946      0.449098272     0.867550281
12.660588            0.447181568     0.868416713   0.000269003774 -0.000164246802   0.000269003774 -0.000164246802      0.449554586     0.867293705
12.660616            0.447640422     0.868159953   0.000269347939 -0.000164664748   0.000269347939 -0.000164664748      0.450011128     0.867036668
12.660644            0.448099508     0.867902727   0.000269692507 -0.000165083785   0.000269692507 -0.000165083785        0.4504679     0.866779168
12.660672            0.448558824     0.867645036   0.000270037478 -0.000165503918   0.000270037479 -0.000165503918      0.450924901     0.866521205
12.6607              0.449018372     0.867386879   0.000270382853  -0.00016592515   0.000270382853  -0.00016592515      0.451382131     0.866262778
12.660728            0.449478151     0.867128255   0.000270728631 -0.000166347482   0.000270728632 -0.000166347482       0.45183959     0.866003886
12.660756            0.449938161     0.866869162   0.000271074813 -0.000166770919   0.000271074813 -0.000166770919      0.452297279     0.865744528
12.660784            0.450398403     0.866609601   0.000271421398 -0.000167195464   0.000271421398 -0.000167195464      0.452755196     0.865484704
12.660812            0.450858876      0.86634957   0.000271768386 -0.000167621119   0.000271768386 -0.000167621119      0.453213343     0.865224413
12.66084              0.45131958     0.866089068   0.000272115778 -0.000168047888   0.000272115778 -0.000168047888      0.453671718     0.864963653
12.660868            0.451780515     0.865828095   0.000272463573 -0.000168475773   0.000272463574 -0.000168475773      0.454130323     0.864702425
12.660896            0.452241682      0.86556665   0.000272811772 -0.000168904778   0.000272811772 -0.000168904779      0.454589157     0.864440727
12.660924            0.452703079     0.865304732   0.000273160374 -0.000169334907   0.000273160375 -0.000169334907       0.45504822     0.864178558
12.660952            0.453164708      0.86504234    0.00027350938 -0.000169766161   0.000273509381 -0.000169766161      0.455507512     0.863915917
12.66098             0.453626568     0.864779474    0.00027385879 -0.000170198544    0.00027385879 -0.000170198544      0.455967033     0.863652805
12.661008            0.454088659     0.864516131   0.000274208602  -0.00017063206   0.000274208603  -0.00017063206      0.456426783     0.863389219
12.661036            0.454550982     0.864252313   0.000274558819  -0.00017106671   0.000274558819 -0.000171066711      0.456886762     0.863125159
12.661064            0.455013535     0.863988017   0.000274909438   -0.0001715025   0.000274909439   -0.0001715025       0.45734697     0.862860624
12.661092             0.45547632     0.863723243   0.000275260462 -0.000171939431   0.000275260462 -0.000171939431      0.457807407     0.862595614
12.66112             0.455939335      0.86345799   0.000275611888 -0.000172377507   0.000275611889 -0.000172377507      0.458268073     0.862330127
12.661148            0.456402582     0.863192257   0.000275963719 -0.000172816731   0.000275963719 -0.000172816731      0.458728967     0.862064163
12.661176             0.45686606     0.862926044   0.000276315952 -0.000173257107   0.000276315953 -0.000173257107      0.459190091     0.861797721
12.661204            0.457329769     0.862659349   0.000276668589 -0.000173698636    0.00027666859 -0.000173698636      0.459651444       0.8615308
12.661232            0.457793709     0.862392172    0.00027702163 -0.000174141324    0.00027702163 -0.000174141324      0.460113026     0.861263398
12.66126             0.458257879     0.862124512   0.000277375073 -0.000174585172   0.000277375074 -0.000174585172      0.460574836     0.860995517
12.661288            0.458722281     0.861856367    0.00027772892 -0.000175030184   0.000277728921 -0.000175030184      0.461036875     0.860727153
12.661316            0.459186914     0.861587738   0.000278083171 -0.000175476363   0.000278083171 -0.000175476364      0.461499143     0.860458307
12.661344            0.459651778     0.861318623   0.000278437824 -0.000175923713   0.000278437825 -0.000175923714       0.46196164     0.860188978
12.661372            0.460116872     0.861049021   0.000278792881 -0.000176372237   0.000278792881 -0.000176372237      0.462424366     0.859919165
12.6614              0.460582198     0.860778932   0.000279148341 -0.000176821938   0.000279148341 -0.000176821938       0.46288732     0.859648866
12.661428            0.461047754     0.860508354   0.000279504204 -0.000177272819   0.000279504204 -0.000177272819      0.463350503     0.859378082
12.661456            0.461513541     0.860237287    0.00027986047 -0.000177724884    0.00027986047 -0.000177724884      0.463813915     0.859106811
12.661484            0.461979559      0.85996573   0.000280217139 -0.000178178135   0.000280217139 -0.000178178135      0.464277556     0.858835052
12.661512            0.462445808     0.859693682   0.000280574211 -0.000178632577   0.000280574211 -0.000178632577      0.464741425     0.858562805
12.66154             0.462912287     0.859421142   0.000280931685 -0.000179088212   0.000280931686 -0.000179088212      0.465205522     0.858290069
12.661568            0.463378997      0.85914811   0.000281289563 -0.000179545044   0.000281289563 -0.000179545044      0.465669848     0.858016842
12.661596            0.463845938     0.858874583   0.000281647843 -0.000180003075   0.000281647843 -0.000180003076      0.466134403     0.857743125
12.661624            0.464313109     0.858600563   0.000282006526 -0.000180462311   0.000282006526 -0.000180462311      0.466599186     0.857468915
12.661652            0.464780511     0.858326046   0.000282365611 -0.000180922753   0.000282365611 -0.000180922753      0.467064198     0.857194213
12.66168             0.465248144     0.858051034   0.000282725099 -0.000181384405   0.000282725099 -0.000181384405      0.467529438     0.856919016
12.661708            0.465716007     0.857775524   0.000283084989 -0.000181847271   0.000283084989 -0.000181847271      0.467994907     0.856643326
12.661736            0.466184101     0.857499517   0.000283445281 -0.000182311353   0.000283445281 -0.000182311353      0.468460604      0.85636714
12.661764            0.466652425      0.85722301   0.000283805976 -0.000182776656   0.000283805976 -0.000182776656      0.468926529     0.856090457
12.661792             0.46712098     0.856946004   0.000284167072 -0.000183243182   0.000284167072 -0.000183243182      0.469392683     0.855813278
12.66182             0.467589765     0.856668497   0.000284528571 -0.000183710936   0.000284528571 -0.000183710936      0.469859064       0.8555356
12.661848             0.46805878     0.856390488   0.000284890471 -0.000184179919   0.000284890471  -0.00018417992      0.470325674     0.855257423
12.661876            0.468528026     0.856111977   0.000285252773 -0.000184650137   0.000285252773 -0.000184650137      0.470792512     0.854978746
12.661904            0.468997501     0.855832962   0.000285615477 -0.000185121592   0.000285615477 -0.000185121592      0.471259579     0.854699569
12.661932            0.469467208     0.855553443   0.000285978582 -0.000185594288   0.000285978582 -0.000185594288      0.471726873      0.85441989
12.66196             0.469937144     0.855273419   0.000286342089 -0.000186068227   0.000286342089 -0.000186068228      0.472194396     0.854139708
12.661988             0.47040731     0.854992889   0.000286705996 -0.000186543415   0.000286705997 -0.000186543415      0.472662146     0.853859023
12.662016            0.470877707     0.854711852   0.000287070305 -0.000187019854   0.000287070306 -0.000187019854      0.473130124     0.853577834
12.662044            0.471348334     0.854430307   0.000287435015 -0.000187497547   0.000287435015 -0.000187497547      0.473598331      0.85329614
12.662072             0.47181919     0.854148253   0.000287800126 -0.000187976498   0.000287800126 -0.000187976498      0.474066765     0.853013939
12.6621              0.472290277     0.853865689   0.000288165637 -0.000188456711   0.000288165637 -0.000188456711      0.474535427     0.852731231
12.662128            0.472761593     0.853582615   0.000288531549 -0.000188938189   0.000288531549 -0.000188938189      0.475004316     0.852448015
12.662156             0.47323314     0.853299029   0.000288897861 -0.000189420935   0.000288897862 -0.000189420935      0.475473434     0.852164291
12.662184            0.473704916      0.85301493   0.000289264574 -0.000189904954   0.000289264574 -0.000189904954      0.475942779     0.851880057
12.662212            0.474176922     0.852730319   0.000289631686 -0.000190390248   0.000289631687 -0.000190390248      0.476412352     0.851595312
12.66224             0.474649158     0.852445193   0.000289999199 -0.000190876821   0.000289999199 -0.000190876822      0.476882152     0.851310055
12.662268            0.475121623     0.852159552   0.000290367111 -0.000191364678   0.000290367111 -0.000191364678       0.47735218     0.851024286
12.662296            0.475594318     0.851873394   0.000290735422  -0.00019185382   0.000290735423 -0.000191853821      0.477822435     0.850738004
12.662324            0.476067242      0.85158672   0.000291104133 -0.000192344253   0.000291104133 -0.000192344253      0.478292917     0.850451207
12.662352            0.476540396     0.851299527   0.000291473243 -0.000192835979   0.000291473244 -0.000192835979      0.478763627     0.850163895
12.66238              0.47701378     0.851011816   0.000291842752 -0.000193329002   0.000291842753 -0.000193329002      0.479234565     0.849876067
12.662408            0.477487393     0.850723585    0.00029221266 -0.000193823326    0.00029221266 -0.000193823326      0.479705729     0.849587722
12.662436            0.477961235     0.850434833   0.000292582966 -0.000194318955   0.000292582967 -0.000194318955      0.480177121     0.849298858
12.662464            0.478435306     0.850145559   0.000292953671 -0.000194815891   0.000292953671 -0.000194815891      0.480648739     0.849009476
12.662492            0.478909607     0.849855763   0.000293324774 -0.000195314139   0.000293324774 -0.000195314139      0.481120585     0.848719574
12.66252             0.479384136     0.849565443   0.000293696275 -0.000195813702   0.000293696275 -0.000195813703      0.481592658     0.848429151
12.662548            0.479858895     0.849274599   0.000294068173 -0.000196314585   0.000294068174 -0.000196314585      0.482064958     0.848138207
12.662576            0.480333883     0.848983229   0.000294440469  -0.00019681679    0.00029444047  -0.00019681679      0.482537484      0.84784674
12.662604            0.480809099     0.848691333   0.000294813163 -0.000197320321   0.000294813163 -0.000197320321      0.483010237     0.847554749
12.662632            0.481284545     0.848398909   0.000295186253 -0.000197825182   0.000295186253 -0.000197825182      0.483483217     0.847262234
12.66266             0.481760219     0.848105957    0.00029555974 -0.000198331377   0.000295559741 -0.000198331377      0.483956424     0.846969193
12.662688            0.482236122     0.847812476   0.000295933624 -0.000198838909   0.000295933624  -0.00019883891      0.484429857     0.846675626
12.662716            0.482712254     0.847518465   0.000296307904 -0.000199347783   0.000296307904 -0.000199347783      0.484903517     0.846381532
12.662744            0.483188615     0.847223922    0.00029668258 -0.000199858002    0.00029668258 -0.000199858002      0.485377403     0.846086909
12.662772            0.483665204     0.846928848   0.000297057652 -0.000200369569   0.000297057652 -0.000200369569      0.485851516     0.845791757
12.6628              0.484142021      0.84663324   0.000297433119 -0.000200882488    0.00029743312 -0.000200882489      0.486325855     0.845496075
12.662828            0.484619067     0.846337099   0.000297808982 -0.000201396764   0.000297808982 -0.000201396764       0.48680042     0.845199862
12.662856            0.485096341     0.846040422   0.000298185239   -0.0002019124    0.00029818524   -0.0002019124      0.487275212     0.844903117
12.662884            0.485573843      0.84574321   0.000298561892   -0.0002024294   0.000298561892   -0.0002024294      0.487750229     0.844605839
12.662912            0.486051574      0.84544546   0.000298938939 -0.000202947767   0.000298938939 -0.000202947767      0.488225472     0.844308027
12.66294             0.486529532     0.845147173    0.00029931638 -0.000203467505    0.00029931638 -0.000203467506      0.488700942     0.844009679
12.662968            0.487007719     0.844848347   0.000299694214 -0.000203988619   0.000299694215 -0.000203988619      0.489176637     0.843710796
12.662996            0.487486133     0.844548981   0.000300072443 -0.000204511112   0.000300072443 -0.000204511112      0.489652558     0.843411377
12.663024            0.487964775     0.844249075   0.000300451064 -0.000205034988   0.000300451065 -0.000205034988      0.490128704     0.843111419
12.663052            0.488443646     0.843948626   0.000300830079  -0.00020556025   0.000300830079  -0.00020556025      0.490605077     0.842810922
12.66308             0.488922743     0.843647636   0.000301209486 -0.000206086903   0.000301209486 -0.000206086903      0.491081674     0.842509886
12.663108            0.489402069     0.843346101   0.000301589286 -0.000206614951   0.000301589286 -0.000206614951      0.491558498     0.842208309
12.663136            0.489881621     0.843044022   0.000301969477 -0.000207144397   0.000301969477 -0.000207144397      0.492035546     0.841906191
12.663164            0.490361402     0.842741397    0.00030235006 -0.000207675245    0.00030235006 -0.000207675246       0.49251282      0.84160353
12.663192            0.490841409     0.842438225   0.000302731035   -0.0002082075   0.000302731035   -0.0002082075      0.492990319     0.841300325
12.66322             0.491321644     0.842134506     0.0003031124 -0.000208741165     0.0003031124 -0.000208741165      0.493468043     0.840996575
12.663248            0.491802106     0.841830238   0.000303494156 -0.000209276243   0.000303494156 -0.000209276244      0.493945992      0.84069228
12.663276            0.492282795     0.841525421   0.000303876302  -0.00020981274   0.000303876303 -0.000209812741      0.494424166     0.840387439
12.663304            0.492763711     0.841220053   0.000304258839 -0.000210350659   0.000304258839 -0.000210350659      0.494902565      0.84008205
12.663332            0.493244854     0.840914134   0.000304641764 -0.000210890004   0.000304641765 -0.000210890004      0.495381189     0.839776112
12.66336             0.493726224     0.840607662   0.000305025079 -0.000211430779    0.00030502508 -0.000211430779      0.495860037     0.839469625
12.663388             0.49420782     0.840300637   0.000305408783 -0.000211972987   0.000305408784 -0.000211972988       0.49633911     0.839162587
12.663416            0.494689643     0.839993057   0.000305792875 -0.000212516634   0.000305792876 -0.000212516634      0.496818407     0.838854998
12.663444            0.495171693     0.839684921   0.000306177356 -0.000213061723   0.000306177356 -0.000213061723      0.497297928     0.838546857
12.663472            0.495653968     0.839376229   0.000306562224 -0.000213608257   0.000306562224 -0.000213608258      0.497777674     0.838238162
12.6635              0.496136471      0.83906698   0.000306947479 -0.000214156242   0.000306947479 -0.000214156242      0.498257644     0.837928912
12.663528            0.496619199     0.838757171   0.000307333121 -0.000214705681   0.000307333121 -0.000214705681      0.498737838     0.837619108
12.663556            0.497102153     0.838446804    0.00030771915 -0.000215256578    0.00030771915 -0.000215256578      0.499218256     0.837308746
12.663584            0.497585334     0.838135876   0.000308105564 -0.000215808937   0.000308105564 -0.000215808937      0.499698898     0.836997828
12.663612             0.49806874     0.837824386   0.000308492364 -0.000216362762   0.000308492365 -0.000216362763      0.500179763      0.83668635
12.66364             0.498552372     0.837512333    0.00030887955 -0.000216918058    0.00030887955 -0.000216918059      0.500660852     0.836374314
12.663668             0.49903623     0.837199718    0.00030926712 -0.000217474829    0.00030926712 -0.000217474829      0.501142165     0.836061717
12.663696            0.499520313     0.836886537   0.000309655074 -0.000218033078   0.000309655075 -0.000218033078      0.501623701     0.835748558
12.663724            0.500004622     0.836572791   0.000310043413  -0.00021859281   0.000310043413  -0.00021859281       0.50210546     0.835434837
12.663752            0.500489156     0.836258478   0.000310432134 -0.000219154028   0.000310432135 -0.000219154029      0.502587443     0.835120552
12.66378             0.500973915     0.835943598   0.000310821239 -0.000219716738   0.000310821239 -0.000219716738      0.503069648     0.834805703
12.663808              0.5014589     0.835628148   0.000311210726 -0.000220280943   0.000311210727 -0.000220280943      0.503552077     0.834490289
12.663836            0.501944109      0.83531213   0.000311600595 -0.000220846648   0.000311600596 -0.000220846648      0.504034728     0.834174308
12.663864            0.502429544      0.83499554   0.000311990846 -0.000221413856   0.000311990847 -0.000221413856      0.504517602     0.833857759
12.663892            0.502915203     0.834678379   0.000312381478 -0.000221982572   0.000312381478 -0.000221982572      0.505000699     0.833540642
12.66392             0.503401086     0.834360644   0.000312772491   -0.0002225528   0.000312772491   -0.0002225528      0.505484018     0.833222955
12.663948            0.503887195     0.834042336   0.000313163883 -0.000223124544   0.000313163883 -0.000223124544       0.50596756     0.832904697
12.663976            0.504373527     0.833723453   0.000313555655 -0.000223697809   0.000313555655 -0.000223697809      0.506451324     0.832585868
12.664004            0.504860084     0.833403994   0.000313947806 -0.000224272598   0.000313947807 -0.000224272599       0.50693531     0.832266466
12.664032            0.505346865     0.833083959   0.000314340336 -0.000224848917   0.000314340336 -0.000224848917      0.507419518     0.831946491
12.66406             0.505833871     0.832763345   0.000314733244 -0.000225426769   0.000314733244 -0.000225426769      0.507903948     0.831625941
12.664088              0.5063211     0.832442152   0.000315126529 -0.000226006158   0.000315126529 -0.000226006159        0.5083886     0.831304815
12.664116            0.506808552     0.832120379   0.000315520191  -0.00022658709   0.000315520192  -0.00022658709      0.508873473     0.830983112
12.664144            0.507296229     0.831798025    0.00031591423 -0.000227169568    0.00031591423 -0.000227169568      0.509358568     0.830660831
12.664172            0.507784129     0.831475089   0.000316308645 -0.000227753596   0.000316308645 -0.000227753596      0.509843884     0.830337971
12.6642              0.508272252     0.831151569   0.000316703434 -0.000228339179   0.000316703435 -0.000228339179      0.510329422     0.830014532
12.664228            0.508760599     0.830827465   0.000317098599 -0.000228926321   0.000317098599 -0.000228926321       0.51081518     0.829690511
12.664256            0.509249169     0.830502776   0.000317494138 -0.000229515027   0.000317494138 -0.000229515027       0.51130116     0.829365909
12.664284            0.509737962       0.8301775    0.00031789005 -0.000230105301   0.000317890051 -0.000230105301       0.51178736     0.829040723
12.664312            0.510226977     0.829851637   0.000318286336 -0.000230697147   0.000318286336 -0.000230697148      0.512273782     0.828714953
12.66434             0.510716216     0.829525186   0.000318682994  -0.00023129057   0.000318682994 -0.000231290571      0.512760423     0.828388598
12.664368            0.511205676     0.829198144   0.000319080024 -0.000231885575   0.000319080024 -0.000231885575      0.513247286     0.828061657
12.664396             0.51169536     0.828870512   0.000319477425 -0.000232482165   0.000319477425 -0.000232482165      0.513734368     0.827734128
12.664424            0.512185266     0.828542289   0.000319875197 -0.000233080344   0.000319875197 -0.000233080345      0.514221671     0.827406011
12.664452            0.512675393     0.828213472   0.000320273339 -0.000233680119   0.000320273339 -0.000233680119      0.514709194     0.827077305
12.66448             0.513165743     0.827884062    0.00032067185 -0.000234281492    0.00032067185 -0.000234281492      0.515196936     0.826748008
12.664508            0.513656315     0.827554057    0.00032107073 -0.000234884469    0.00032107073 -0.000234884469      0.515684898     0.826418119
12.664536            0.514147108     0.827223455   0.000321469978 -0.000235489054   0.000321469978 -0.000235489054       0.51617308     0.826087638
12.664564            0.514638123     0.826892257   0.000321869593 -0.000236095251   0.000321869594 -0.000236095251      0.516661482     0.825756563
12.664592             0.51512936      0.82656046   0.000322269576 -0.000236703065   0.000322269576 -0.000236703065      0.517150102     0.825424893
12.66462             0.515620817     0.826228064   0.000322669925 -0.000237312501   0.000322669925 -0.000237312501      0.517638942     0.825092628
12.664648            0.516112496     0.825895068   0.000323070639 -0.000237923563   0.000323070639 -0.000237923563      0.518128001     0.824759766
12.664676            0.516604396      0.82556147   0.000323471718 -0.000238536255   0.000323471718 -0.000238536255      0.518617278     0.824426305
12.664704            0.517096516     0.825227269   0.000323873161 -0.000239150582   0.000323873161 -0.000239150583      0.519106774     0.824092246
12.664732            0.517588857     0.824892465   0.000324274967 -0.000239766549   0.000324274967  -0.00023976655      0.519596489     0.823757586
12.66476             0.518081419     0.824557057   0.000324677136 -0.000240384161   0.000324677137 -0.000240384161      0.520086422     0.823422325
12.664788            0.518574201     0.824221042   0.000325079668 -0.000241003421   0.000325079668 -0.000241003422      0.520576573     0.823086462
12.664816            0.519067203     0.823884421    0.00032548256 -0.000241624335   0.000325482561 -0.000241624335      0.521066943     0.822749995
12.664844            0.519560425     0.823547191   0.000325885814 -0.000242246907   0.000325885814 -0.000242246908       0.52155753     0.822412924
12.664872            0.520053867     0.823209352   0.000326289427 -0.000242871142   0.000326289427 -0.000242871143      0.522048335     0.822075247
12.6649              0.520547529     0.822870903   0.000326693399 -0.000243497045     0.0003266934 -0.000243497045      0.522539357     0.821736963
12.664928             0.52104141     0.822531843    0.00032709773 -0.000244124619    0.00032709773  -0.00024412462      0.523030597     0.821398072
12.664956             0.52153551      0.82219217   0.000327502418 -0.000244753871   0.000327502419 -0.000244753871      0.523522054     0.821058571
12.664984             0.52202983     0.821851884   0.000327907464 -0.000245384804   0.000327907464 -0.000245384804      0.524013728     0.820718461
12.665012            0.522524368     0.821510983   0.000328312865 -0.000246017423   0.000328312865 -0.000246017423      0.524505619      0.82037774
12.66504             0.523019126     0.821169466   0.000328718622 -0.000246651733   0.000328718622 -0.000246651734      0.524997727     0.820036406
12.665068            0.523514102     0.820827332   0.000329124733 -0.000247287739   0.000329124733  -0.00024728774      0.525490051     0.819694459
12.665096            0.524009296      0.82048458   0.000329531198 -0.000247925446   0.000329531198 -0.000247925446      0.525982591     0.819351897
12.665124            0.524504709     0.820141209   0.000329938016 -0.000248564858   0.000329938016 -0.000248564858      0.526475348      0.81900872
12.665152             0.52500034     0.819797218   0.000330345186 -0.000249205979   0.000330345186  -0.00024920598      0.526968321     0.818664927
12.66518             0.525496189     0.819452605   0.000330752707 -0.000249848816   0.000330752708 -0.000249848816      0.527461509     0.818320515
12.665208            0.525992255      0.81910737   0.000331160579 -0.000250493372    0.00033116058 -0.000250493372      0.527954913     0.817975485
12.665236            0.526488539     0.818761511   0.000331568801 -0.000251139653   0.000331568801 -0.000251139653      0.528448533     0.817629834
12.665264            0.526985041     0.818415028   0.000331977371 -0.000251787663   0.000331977372 -0.000251787663      0.528942368     0.817283562
12.665292            0.527481759     0.818067918    0.00033238629 -0.000252437407    0.00033238629 -0.000252437407      0.529436417     0.816936669
12.66532             0.527978695     0.817720181   0.000332795555  -0.00025308889   0.000332795556  -0.00025308889      0.529930682     0.816589151
12.665348            0.528475848     0.817371816   0.000333205167 -0.000253742117   0.000333205167 -0.000253742117      0.530425162     0.816241009
12.665376            0.528973217     0.817022822   0.000333615124 -0.000254397092   0.000333615124 -0.000254397093      0.530919856     0.815892242
12.665404            0.529470802     0.816673197   0.000334025426 -0.000255053822   0.000334025426 -0.000255053822      0.531414764     0.815542847