! TOUCHSTONE file generated by CST MICROWAVE STUDIO
! Date and time: Wed Jul 31 16:16:24 2024
! Project name: WaveGuide_BPF-Ver4.1_U-shape_Ku_T3_C4_CWA_2.cst
! Parameters = {cavity_h=16; cavity_l0=10; cavity_l1=15.2173; cavity_l2=16.8617; cavity_l3=17.1455; cavity_l4=17.229; cavity_l5=17.1162; cavity_l6=17.6237; cavity_r=2.5; cavity_screw_l=0.5; cavity_screw_r=1.5; cavity_w=8; iris_h00=0; iris_h01=8.803; iris_h112=0; iris_h12=5.5957; iris_h211=3.652; iris_h23=5.1894; iris_h310=3.9652; iris_h34=5.0733; iris_h45=4.9178; iris_h49=4.6109; iris_h56=4.8031; iris_h58=4.4373; iris_h67=6.5673; iris_rx=0.1; iris_screw_l=0.5; iris_screw_r=1.5; iris_shift00=0; iris_shift112=0; iris_shift211=3.5; iris_shift310=0; iris_shift49=0; iris_shift58=3.5; iris_shift67=3.5; iris_tx=4.5; iris_tz=4.5; iris_w00=0; iris_w112=0; iris_w211=4; iris_w310=3.9652; iris_w49=4.6109; iris_w58=4; iris_w67=4; mesh_cavity=5; mesh_iris=7; mesh_screw=7; order=12; reset_all=0; sigma=4.8e+07}
! Header version: 2018
! Port assignment regex: !\s*Touchstone port\s*([0-9]+)\s*=\s*(CST MWS port|CST DS port)\s*([0-9]+|Zmin|Zmax)\s*\(\"(.*)\"\)(\s*mode\s*([0-9]+))?.*
! Touchstone port assignment:
! Touchstone port 1 = CST MWS port 1 ("")
! Touchstone port 2 = CST MWS port 2 ("")
# GHz S RI R 50
12.66                0.336769784     0.920092044   0.000267652244  -0.00012075312   0.000267652244  -0.00012075312      0.337005189     0.920103641
12.660028            0.337191181     0.919921119   0.000268038293 -0.000121085442   0.000268038293 -0.000121085442      0.337424421     0.919933547
12.660056            0.337612818     0.919749858   0.000268424959 -0.000121418678    0.00026842496 -0.000121418678       0.33784381     0.919763149
12.660084            0.338034704     0.919578256   0.000268812237 -0.000121752838   0.000268812238 -0.000121752838      0.338263401      0.91959243
12.660112            0.338456848     0.919406309   0.000269200122  -0.00012208793   0.000269200123  -0.00012208793      0.338683235     0.919421373
12.66014             0.338879259     0.919234013   0.000269588609 -0.000122423963   0.000269588609 -0.000122423963      0.339103358     0.919249963
12.660168            0.339301939     0.919061367   0.000269977697 -0.000122760941   0.000269977697 -0.000122760941       0.33952377     0.919078199
12.660196            0.339724881     0.918888374   0.000270367392 -0.000123098862   0.000270367392 -0.000123098862      0.339944441      0.91890609
12.660224            0.340148085     0.918715032   0.000270757695 -0.000123437729   0.000270757695 -0.000123437729      0.340365372     0.918733636
12.660252            0.340571552      0.91854134   0.000271148606 -0.000123777545   0.000271148607 -0.000123777545      0.340786563     0.918560836
12.66028             0.340995281     0.918367299   0.000271540127 -0.000124118312   0.000271540128 -0.000124118312      0.341208014      0.91838769
12.660308            0.341419273     0.918192907   0.000271932259 -0.000124460034   0.000271932259 -0.000124460034      0.341629726     0.918214197
12.660336            0.341843528     0.918018163   0.000272325001 -0.000124802713   0.000272325001 -0.000124802713      0.342051699     0.918040356
12.660364            0.342268046     0.917843068   0.000272718355 -0.000125146352   0.000272718356 -0.000125146352      0.342473932     0.917866166
12.660392            0.342692827     0.917667619   0.000273112322 -0.000125490954   0.000273112322 -0.000125490954      0.342896426     0.917691627
12.66042             0.343117872     0.917491817   0.000273506902 -0.000125836523   0.000273506903 -0.000125836523      0.343319181     0.917516739
12.660448            0.343543181     0.917315661   0.000273902097  -0.00012618306   0.000273902098  -0.00012618306      0.343742198       0.9173415
12.660476            0.343968753     0.917139151   0.000274297907 -0.000126530569   0.000274297907 -0.000126530569      0.344165476     0.917165909
12.660504             0.34439459     0.916962284   0.000274694333 -0.000126879052   0.000274694333 -0.000126879053      0.344589016     0.916989967
12.660532            0.344820691     0.916785062   0.000275091375 -0.000127228514   0.000275091376 -0.000127228514      0.345012818     0.916813672
12.66056             0.345247056     0.916607482   0.000275489035 -0.000127578956   0.000275489036 -0.000127578956      0.345436882     0.916637024
12.660588            0.345673686     0.916429545   0.000275887314 -0.000127930382   0.000275887314 -0.000127930382      0.345861208     0.916460022
12.660616            0.346100581      0.91625125   0.000276286212 -0.000128282794   0.000276286212 -0.000128282794      0.346285797     0.916282665
12.660644            0.346527741     0.916072596    0.00027668573 -0.000128636196    0.00027668573 -0.000128636196      0.346710648     0.916104953
12.660672            0.346955167     0.915893582   0.000277085868  -0.00012899059   0.000277085869  -0.00012899059      0.347135762     0.915926885
12.6607              0.347382857     0.915714207   0.000277486628  -0.00012934598   0.000277486629  -0.00012934598      0.347561139      0.91574846
12.660728            0.347810813     0.915534471   0.000277888011 -0.000129702368   0.000277888012 -0.000129702368       0.34798678     0.915569678
12.660756            0.348239036     0.915354374   0.000278290017 -0.000130059758   0.000278290018 -0.000130059758      0.348412683     0.915390538
12.660784            0.348667523     0.915173914   0.000278692647 -0.000130418152   0.000278692648 -0.000130418152      0.348838851     0.915211039
12.660812            0.349096278     0.914993091   0.000279095902 -0.000130777554   0.000279095903 -0.000130777554      0.349265282      0.91503118
12.66084             0.349525298     0.914811903   0.000279499783 -0.000131137967   0.000279499784 -0.000131137967      0.349691977     0.914850961
12.660868            0.349954585     0.914630351    0.00027990429 -0.000131499393   0.000279904291 -0.000131499393      0.350118936     0.914670381
12.660896            0.350384139     0.914448434   0.000280309425 -0.000131861836   0.000280309425 -0.000131861836      0.350546159      0.91448944
12.660924             0.35081396     0.914266151   0.000280715188 -0.000132225299   0.000280715188 -0.000132225299      0.350973647     0.914308136
12.660952            0.351244047       0.9140835   0.000281121579 -0.000132589785    0.00028112158 -0.000132589785        0.3514014     0.914126469
12.66098             0.351674402     0.913900482   0.000281528601 -0.000132955297   0.000281528601 -0.000132955297      0.351829418     0.913944439
12.661008            0.352105025     0.913717096   0.000281936253 -0.000133321838   0.000281936253 -0.000133321838        0.3522577     0.913762044
12.661036            0.352535915     0.913533341   0.000282344536 -0.000133689412   0.000282344537 -0.000133689412      0.352686248     0.913579283
12.661064            0.352967073     0.913349216   0.000282753452  -0.00013405802   0.000282753452  -0.00013405802      0.353115061     0.913396157
12.661092            0.353398499     0.913164721      0.000283163 -0.000134427667   0.000283163001 -0.000134427667       0.35354414     0.913212664
12.66112             0.353830193     0.912979854   0.000283573182 -0.000134798356   0.000283573183 -0.000134798356      0.353973485     0.913028804
12.661148            0.354262156     0.912794616   0.000283983999  -0.00013517009      0.000283984  -0.00013517009      0.354403095     0.912844576
12.661176            0.354694387     0.912609004   0.000284395452 -0.000135542871   0.000284395452 -0.000135542871      0.354832972     0.912659979
12.661204            0.355126887      0.91242302    0.00028480754 -0.000135916704   0.000284807541 -0.000135916704      0.355263115     0.912475012
12.661232            0.355559656     0.912236661   0.000285220266 -0.000136291591   0.000285220266 -0.000136291591      0.355693525     0.912289675
12.66126             0.355992694     0.912049927   0.000285633629 -0.000136667536   0.000285633629 -0.000136667536      0.356124201     0.912103968
12.661288            0.356426001     0.911862818   0.000286047631 -0.000137044541   0.000286047631 -0.000137044541      0.356555144     0.911917888
12.661316            0.356859578     0.911675332   0.000286462272  -0.00013742261   0.000286462273  -0.00013742261      0.356986355     0.911731436
12.661344            0.357293425      0.91148747   0.000286877554 -0.000137801747   0.000286877554 -0.000137801747      0.357417832     0.911544611
12.661372            0.357727541     0.911299229   0.000287293476 -0.000138181953   0.000287293477 -0.000138181954      0.357849577     0.911357412
12.6614              0.358161928      0.91111061   0.000287710041 -0.000138563234   0.000287710041 -0.000138563234       0.35828159     0.911169838
12.661428            0.358596585     0.910921611   0.000288127248 -0.000138945591   0.000288127248 -0.000138945591      0.358713871     0.910981889
12.661456            0.359031512     0.910732233   0.000288545098 -0.000139329029   0.000288545098 -0.000139329029      0.359146419     0.910793564
12.661484             0.35946671     0.910542473   0.000288963592  -0.00013971355   0.000288963593  -0.00013971355      0.359579236     0.910604862
12.661512            0.359902178     0.910352332   0.000289382732 -0.000140099158   0.000289382732 -0.000140099158      0.360012321     0.910415782
12.66154             0.360337918     0.910161808   0.000289802517 -0.000140485856   0.000289802518 -0.000140485856      0.360445674     0.910226324
12.661568            0.360773929     0.909970902   0.000290222949 -0.000140873647    0.00029022295 -0.000140873647      0.360879297     0.910036487
12.661596            0.361210211     0.909779611   0.000290644028 -0.000141262535   0.000290644029 -0.000141262535      0.361313188      0.90984627
12.661624            0.361646765     0.909587936   0.000291065756 -0.000141652523   0.000291065756 -0.000141652523      0.361747348     0.909655673
12.661652             0.36208359     0.909395875   0.000291488132 -0.000142043615   0.000291488133 -0.000142043615      0.362181778     0.909464694
12.66168             0.362520687     0.909203428   0.000291911158 -0.000142435813   0.000291911159 -0.000142435813      0.362616477     0.909273333
12.661708            0.362958057     0.909010595   0.000292334835 -0.000142829121   0.000292334835 -0.000142829121      0.363051445     0.909081589
12.661736            0.363395698     0.908817373   0.000292759163 -0.000143223543   0.000292759163 -0.000143223543      0.363486684     0.908889461
12.661764            0.363833613     0.908623763   0.000293184143 -0.000143619082   0.000293184143 -0.000143619082      0.363922192     0.908696949
12.661792            0.364271799     0.908429764   0.000293609776 -0.000144015741   0.000293609776 -0.000144015741      0.364357971     0.908504052
12.66182             0.364710259     0.908235374   0.000294036062 -0.000144413523   0.000294036063 -0.000144413523       0.36479402     0.908310769
12.661848            0.365148991     0.908040594   0.000294463003 -0.000144812433   0.000294463004 -0.000144812433       0.36523034     0.908117099
12.661876            0.365587997     0.907845422     0.0002948906 -0.000145212473     0.0002948906 -0.000145212473       0.36566693     0.907923042
12.661904            0.366027276     0.907649858   0.000295318852 -0.000145613647   0.000295318853 -0.000145613648      0.366103791     0.907728596
12.661932            0.366466829     0.907453901   0.000295747761 -0.000146015959   0.000295747762 -0.000146015959      0.366540923     0.907533762
12.66196             0.366906656      0.90725755   0.000296177328 -0.000146419412   0.000296177328 -0.000146419412      0.366978327     0.907338538
12.661988            0.367346756     0.907060804   0.000296607553 -0.000146824009   0.000296607554 -0.000146824009      0.367416002     0.907142923
12.662016             0.36778713     0.906863662   0.000297038437 -0.000147229754   0.000297038438 -0.000147229754      0.367853949     0.906946917
12.662044            0.368227779     0.906666124   0.000297469982  -0.00014763665   0.000297469982  -0.00014763665      0.368292167     0.906750519
12.662072            0.368668702     0.906468189   0.000297902186 -0.000148044701   0.000297902187 -0.000148044701      0.368730657     0.906553728
12.6621                0.3691099     0.906269856   0.000298335053  -0.00014845391   0.000298335053  -0.00014845391       0.36916942     0.906356543
12.662128            0.369551373     0.906071124   0.000298768581 -0.000148864282   0.000298768582 -0.000148864282      0.369608455     0.906158964
12.662156             0.36999312     0.905871993   0.000299202773 -0.000149275819   0.000299202773 -0.000149275819      0.370047762     0.905960989
12.662184            0.370435143     0.905672462   0.000299637628 -0.000149688525   0.000299637629 -0.000149688525      0.370487343     0.905762619
12.662212            0.370877441     0.905472529   0.000300073148 -0.000150102403   0.000300073149 -0.000150102403      0.370927196     0.905563851
12.66224             0.371320015     0.905272195   0.000300509333 -0.000150517458   0.000300509334 -0.000150517458      0.371367322     0.905364686
12.662268            0.371762865     0.905071458   0.000300946185 -0.000150933693   0.000300946185 -0.000150933693      0.371807721     0.905165123
12.662296             0.37220599     0.904870317   0.000301383703 -0.000151351111   0.000301383704 -0.000151351111      0.372248394     0.904965161
12.662324            0.372649392     0.904668772   0.000301821889 -0.000151769716   0.000301821889 -0.000151769716       0.37268934     0.904764798
12.662352            0.373093069     0.904466822   0.000302260743 -0.000152189512   0.000302260744 -0.000152189512      0.373130561     0.904564035
12.66238             0.373537023     0.904264465   0.000302700266 -0.000152610502   0.000302700267 -0.000152610502      0.373572055      0.90436287
12.662408            0.373981254     0.904061702    0.00030314046 -0.000153032689    0.00030314046  -0.00015303269      0.374013823     0.904161302
12.662436            0.374425762     0.903858532   0.000303581324 -0.000153456079   0.000303581324 -0.000153456079      0.374455866     0.903959332
12.662464            0.374870546     0.903654953   0.000304022859 -0.000153880674   0.000304022859 -0.000153880674      0.374898183     0.903756957
12.662492            0.375315608     0.903450965   0.000304465066 -0.000154306478   0.000304465067 -0.000154306478      0.375340775     0.903554178
12.66252             0.375760947     0.903246566   0.000304907947 -0.000154733494   0.000304907947 -0.000154733494      0.375783641     0.903350993
12.662548            0.376206564     0.903041757   0.000305351501 -0.000155161727   0.000305351501 -0.000155161727      0.376226783     0.903147401
12.662576            0.376652458     0.902836536   0.000305795729  -0.00015559118    0.00030579573  -0.00015559118        0.3766702     0.902943403
12.662604             0.37709863     0.902630903   0.000306240633 -0.000156021857   0.000306240634 -0.000156021857      0.377113892     0.902738996
12.662632            0.377545081     0.902424856   0.000306686213 -0.000156453761   0.000306686213 -0.000156453761       0.37755786      0.90253418
12.66266             0.377991809     0.902218395   0.000307132469 -0.000156886897    0.00030713247 -0.000156886897      0.378002103     0.902328954
12.662688            0.378438816     0.902011519   0.000307579403 -0.000157321267   0.000307579403 -0.000157321267      0.378446623     0.902123318
12.662716            0.378886102     0.901804227   0.000308027015 -0.000157756877   0.000308027015 -0.000157756877      0.378891418     0.901917271
12.662744            0.379333666     0.901596518   0.000308475306  -0.00015819373   0.000308475306  -0.00015819373       0.37933649     0.901710811
12.662772            0.379781509     0.901388392   0.000308924276 -0.000158631829   0.000308924277 -0.000158631829      0.379781838     0.901503939
12.6628              0.380229631     0.901179847   0.000309373927 -0.000159071178   0.000309373928 -0.000159071178      0.380227463     0.901296652
12.662828            0.380678033     0.900970883   0.000309824259 -0.000159511781    0.00030982426 -0.000159511781      0.380673365     0.901088951
12.662856            0.381126714     0.900761499   0.000310275273 -0.000159953643   0.000310275273 -0.000159953643      0.381119543     0.900880834
12.662884            0.381575675     0.900551694   0.000310726969 -0.000160396766    0.00031072697 -0.000160396766      0.381565999     0.900672301
12.662912            0.382024915     0.900341467   0.000311179349 -0.000160841155    0.00031117935 -0.000160841155      0.382012732      0.90046335
12.66294             0.382474436     0.900130818   0.000311632413 -0.000161286814   0.000311632413 -0.000161286814      0.382459742     0.900253982
12.662968            0.382924237     0.899919744   0.000312086162 -0.000161733746   0.000312086162 -0.000161733747      0.382907031     0.900044194
12.662996            0.383374318     0.899708247   0.000312540596 -0.000162181956   0.000312540596 -0.000162181956      0.383354597     0.899833987
12.663024            0.383824679     0.899496324   0.000312995716 -0.000162631447   0.000312995716 -0.000162631447      0.383802441     0.899623359
12.663052            0.384275322     0.899283975   0.000313451523 -0.000163082224   0.000313451524 -0.000163082224      0.384250563      0.89941231
12.66308             0.384726245       0.8990712   0.000313908018  -0.00016353429   0.000313908019  -0.00016353429      0.384698963     0.899200839
12.663108            0.385177449     0.898857996   0.000314365202 -0.000163987649   0.000314365202 -0.000163987649      0.385147642     0.898988944
12.663136            0.385628934     0.898644364   0.000314823074 -0.000164442305   0.000314823075 -0.000164442305        0.3855966     0.898776625
12.663164            0.386080701     0.898430302   0.000315281636 -0.000164898262   0.000315281637 -0.000164898262      0.386045837     0.898563882
12.663192             0.38653275     0.898215809   0.000315740889 -0.000165355525    0.00031574089 -0.000165355525      0.386495353     0.898350713
12.66322              0.38698508     0.898000885   0.000316200833 -0.000165814096   0.000316200834 -0.000165814097      0.386945147     0.898137117
12.663248            0.387437692     0.897785529   0.000316661469 -0.000166273981    0.00031666147 -0.000166273982      0.387395222     0.897923093
12.663276            0.387890586      0.89756974   0.000317122798 -0.000166735184   0.000317122799 -0.000166735184      0.387845576     0.897708642
12.663304            0.388343762     0.897353517    0.00031758482 -0.000167197707   0.000317584821 -0.000167197707      0.388296209     0.897493761
12.663332            0.388797221     0.897136859   0.000318047536 -0.000167661556   0.000318047537 -0.000167661556      0.388747123      0.89727845
12.66336             0.389250963     0.896919766   0.000318510947 -0.000168126735   0.000318510948 -0.000168126735      0.389198316     0.897062708
12.663388            0.389704987     0.896702235   0.000318975054 -0.000168593247   0.000318975054 -0.000168593247       0.38964979     0.896846534
12.663416            0.390159294     0.896484267   0.000319439856 -0.000169061097   0.000319439857 -0.000169061097      0.390101544     0.896629928
12.663444            0.390613884     0.896265861   0.000319905355 -0.000169530288   0.000319905356 -0.000169530288      0.390553579     0.896412888
12.663472            0.391068758     0.896047015   0.000320371552 -0.000170000826   0.000320371553 -0.000170000826      0.391005895     0.896195413
12.6635              0.391523915      0.89582773   0.000320838448 -0.000170472713   0.000320838448 -0.000170472713      0.391458491     0.895977503
12.663528            0.391979355     0.895608003   0.000321306042 -0.000170945955   0.000321306042 -0.000170945955      0.391911369     0.895759157
12.663556             0.39243508     0.895387834   0.000321774335 -0.000171420555   0.000321774336 -0.000171420555      0.392364528     0.895540374
12.663584            0.392891088     0.895167222   0.000322243329 -0.000171896518    0.00032224333 -0.000171896518      0.392817968     0.895321153
12.663612            0.393347381     0.894946166   0.000322713024 -0.000172373848   0.000322713025 -0.000172373848       0.39327169     0.895101493
12.66364             0.393803958     0.894724665   0.000323183421 -0.000172852549   0.000323183421 -0.000172852549      0.393725693     0.894881393
12.663668            0.394260819     0.894502719    0.00032365452 -0.000173332625    0.00032365452 -0.000173332625      0.394179979     0.894660852
12.663696            0.394717965     0.894280326   0.000324126322  -0.00017381408   0.000324126322  -0.00017381408      0.394634547      0.89443987
12.663724            0.395175396     0.894057486   0.000324598827 -0.000174296919   0.000324598828 -0.000174296919      0.395089397     0.894218446
12.663752            0.395633112     0.893834198   0.000325072037 -0.000174781147   0.000325072038 -0.000174781147      0.395544529     0.893996577
12.66378             0.396091113      0.89361046   0.000325545952 -0.000175266766   0.000325545953 -0.000175266766      0.395999944     0.893774265
12.663808            0.396549399     0.893386271   0.000326020573 -0.000175753783   0.000326020573 -0.000175753783      0.396455642     0.893551507
12.663836            0.397007971     0.893161632     0.0003264959   -0.0001762422     0.0003264959   -0.0001762422      0.396911623     0.893328304
12.663864            0.397466828     0.892936541   0.000326971934 -0.000176732022   0.000326971934 -0.000176732022      0.397367886     0.893104653
12.663892            0.397925971     0.892710996   0.000327448675 -0.000177223254   0.000327448676 -0.000177223254      0.397824433     0.892880554
12.66392               0.3983854     0.892484998   0.000327926125   -0.0001777159   0.000327926125   -0.0001777159      0.398281264     0.892656006
12.663948            0.398845116     0.892258544   0.000328404284 -0.000178209965   0.000328404284 -0.000178209965      0.398738378     0.892431009
12.663976            0.399305117     0.892031635   0.000328883152 -0.000178705452   0.000328883152 -0.000178705452      0.399195776     0.892205561
12.664004            0.399765406     0.891804269    0.00032936273 -0.000179202366   0.000329362731 -0.000179202366      0.399653458     0.891979661
12.664032             0.40022598     0.891576445    0.00032984302 -0.000179700712    0.00032984302 -0.000179700712      0.400111424     0.891753309
12.66406             0.400686842     0.891348163    0.00033032402 -0.000180200494   0.000330324021 -0.000180200494      0.400569674     0.891526503
12.664088            0.401147991     0.891119421   0.000330805733 -0.000180701716   0.000330805734 -0.000180701716      0.401028209     0.891299242
12.664116            0.401609426     0.890890218   0.000331288159 -0.000181204383    0.00033128816 -0.000181204383      0.401487028     0.891071527
12.664144            0.402071149     0.890660554   0.000331771298 -0.000181708499   0.000331771299 -0.000181708499      0.401946132     0.890843355
12.664172             0.40253316     0.890430428   0.000332255151  -0.00018221407   0.000332255152  -0.00018221407       0.40240552     0.890614725
12.6642              0.402995458     0.890199838   0.000332739719 -0.000182721098    0.00033273972 -0.000182721098      0.402865194     0.890385638
12.664228            0.403458044     0.889968784   0.000333225002 -0.000183229589   0.000333225003  -0.00018322959      0.403325154     0.890156091
12.664256            0.403920918     0.889737264   0.000333711001 -0.000183739548   0.000333711002 -0.000183739548      0.403785398     0.889926085
12.664284             0.40438408     0.889505278   0.000334197717 -0.000184250979   0.000334197717 -0.000184250979      0.404245928     0.889695617
12.664312             0.40484753     0.889272825   0.000334685149 -0.000184763886    0.00033468515 -0.000184763886      0.404706744     0.889464687
12.66434             0.405311269     0.889039903   0.000335173299 -0.000185278275     0.0003351733 -0.000185278275      0.405167846     0.889233295
12.664368            0.405775296     0.888806513   0.000335662168 -0.000185794148   0.000335662168 -0.000185794149      0.405629233     0.889001438
12.664396            0.406239612     0.888572652   0.000336151755 -0.000186311513   0.000336151756 -0.000186311513      0.406090907     0.888769117
12.664424            0.406704217      0.88833832   0.000336642062 -0.000186830372   0.000336642063 -0.000186830372      0.406552868      0.88853633
12.664452            0.407169111     0.888103516   0.000337133089  -0.00018735073    0.00033713309 -0.000187350731      0.407015114     0.888303076
12.66448             0.407634295     0.887868238   0.000337624837 -0.000187872593   0.000337624837 -0.000187872593      0.407477648     0.888069354
12.664508            0.408099767     0.887632487   0.000338117306 -0.000188395965   0.000338117306 -0.000188395965      0.407940468     0.887835164
12.664536             0.40856553     0.887396261   0.000338610497  -0.00018892085   0.000338610497  -0.00018892085      0.408403576     0.887600504
12.664564            0.409031582     0.887159558    0.00033910441 -0.000189447254   0.000339104411 -0.000189447254       0.40886697     0.887365373
12.664592            0.409497923     0.886922379   0.000339599046  -0.00018997518   0.000339599047  -0.00018997518      0.409330652     0.887129771
12.66462             0.409964555     0.886684721   0.000340094406 -0.000190504634   0.000340094407 -0.000190504634      0.409794621     0.886893696
12.664648            0.410431477     0.886446585    0.00034059049  -0.00019103562   0.000340590491  -0.00019103562      0.410258878     0.886657148
12.664676             0.41089869     0.886207968   0.000341087299 -0.000191568144     0.0003410873 -0.000191568144      0.410723423     0.886420125
12.664704            0.411366193      0.88596887   0.000341584833  -0.00019210221   0.000341584834  -0.00019210221      0.411188255     0.886182627
12.664732            0.411833986     0.885729291   0.000342083093 -0.000192637822   0.000342083094 -0.000192637822      0.411653376     0.885944652
12.66476             0.412302071     0.885489228    0.00034258208 -0.000193174986    0.00034258208 -0.000193174986      0.412118785     0.885706199
12.664788            0.412770446     0.885248681   0.000343081793 -0.000193713706   0.000343081794 -0.000193713706      0.412584482     0.885467268
12.664816            0.413239113     0.885007649   0.000343582234 -0.000194253987   0.000343582235 -0.000194253988      0.413050468     0.885227857
12.664844             0.41370807     0.884766131   0.000344083403 -0.000194795835   0.000344083404 -0.000194795835      0.413516742     0.884987966
12.664872             0.41417732     0.884524126   0.000344585301 -0.000195339253   0.000344585301 -0.000195339254      0.413983306     0.884747594
12.6649               0.41464686     0.884281633   0.000345087927 -0.000195884248   0.000345087928 -0.000195884248      0.414450158     0.884506739
12.664928            0.415116693      0.88403865   0.000345591284 -0.000196430823   0.000345591284 -0.000196430823        0.4149173       0.8842654
12.664956            0.415586817     0.883795178    0.00034609537 -0.000196978983   0.000346095371 -0.000196978984      0.415384731     0.884023577
12.664984            0.416057234     0.883551214   0.000346600187 -0.000197528735   0.000346600188 -0.000197528735      0.415852451     0.883781269
12.665012            0.416527942     0.883306758   0.000347105736 -0.000198080082   0.000347105736 -0.000198080082      0.416320461     0.883538474
12.66504             0.416998943     0.883061809   0.000347612016 -0.000198633029   0.000347612017 -0.000198633029      0.416788761     0.883295191
12.665068            0.417470237     0.882816366   0.000348119029 -0.000199187582   0.000348119029 -0.000199187582       0.41725735      0.88305142
12.665096            0.417941823     0.882570427   0.000348626774 -0.000199743745   0.000348626775 -0.000199743745       0.41772623     0.882807159
12.665124            0.418413702     0.882323992   0.000349135253 -0.000200301524   0.000349135253 -0.000200301524        0.4181954     0.882562408
12.665152            0.418885874     0.882077059   0.000349644465 -0.000200860923   0.000349644466 -0.000200860923       0.41866486     0.882317165
12.66518             0.419358339     0.881829628   0.000350154412 -0.000201421948   0.000350154412 -0.000201421948      0.419134611     0.882071429
12.665208            0.419831097     0.881581698   0.000350665093 -0.000201984603   0.000350665094 -0.000201984604      0.419604653     0.881825199
12.665236            0.420304149     0.881333267    0.00035117651 -0.000202548895   0.000351176511 -0.000202548895      0.420074985     0.881578475
12.665264            0.420777494     0.881084334   0.000351688663 -0.000203114827   0.000351688663 -0.000203114827      0.420545609     0.881331255
12.665292            0.421251133     0.880834899   0.000352201551 -0.000203682405   0.000352201552 -0.000203682405      0.421016523     0.881083539
12.66532             0.421725065      0.88058496   0.000352715177 -0.000204251634   0.000352715177 -0.000204251634      0.421487729     0.880835324
12.665348            0.422199292     0.880334517   0.000353229539  -0.00020482252    0.00035322954  -0.00020482252      0.421959226     0.880586611
12.665376            0.422673813     0.880083567    0.00035374464 -0.000205395066    0.00035374464 -0.000205395066      0.422431014     0.880337397
12.665404            0.423148628     0.879832111   0.000354260478  -0.00020596928   0.000354260478  -0.00020596928      0.422903095     0.880087683