! TOUCHSTONE file generated by CST MICROWAVE STUDIO
! Date and time: Wed Jul 31 16:47:23 2024
! Project name: WaveGuide_BPF-Ver4.1_U-shape_Ku_T3_C4_CWA_2.cst
! Parameters = {cavity_h=16; cavity_l0=10; cavity_l1=15.194; cavity_l2=16.879; cavity_l3=17.1429; cavity_l4=17.2664; cavity_l5=17.1635; cavity_l6=17.57; cavity_r=2.5; cavity_screw_l=0.5; cavity_screw_r=1.5; cavity_w=8; iris_h00=0; iris_h01=8.8125; iris_h112=0; iris_h12=5.6102; iris_h211=3.6591; iris_h23=5.2055; iris_h310=3.9675; iris_h34=5.0778; iris_h45=4.9347; iris_h49=4.6107; iris_h56=4.7884; iris_h58=4.4343; iris_h67=6.5885; iris_rx=0.1; iris_screw_l=0.5; iris_screw_r=1.5; iris_shift00=0; iris_shift112=0; iris_shift211=3.5; iris_shift310=0; iris_shift49=0; iris_shift58=3.5; iris_shift67=3.5; iris_tx=4.5; iris_tz=4.5; iris_w00=0; iris_w112=0; iris_w211=4; iris_w310=3.9675; iris_w49=4.6107; iris_w58=4; iris_w67=4; mesh_cavity=5; mesh_iris=7; mesh_screw=7; order=12; reset_all=0; sigma=4.8e+07}
! Header version: 2018
! Port assignment regex: !\s*Touchstone port\s*([0-9]+)\s*=\s*(CST MWS port|CST DS port)\s*([0-9]+|Zmin|Zmax)\s*\(\"(.*)\"\)(\s*mode\s*([0-9]+))?.*
! Touchstone port assignment:
! Touchstone port 1 = CST MWS port 1 ("")
! Touchstone port 2 = CST MWS port 2 ("")
# GHz S RI R 50
12.66                0.313767006     0.928569809   0.000344236954 -0.000147762872   0.000344236954 -0.000147762871      0.315608748     0.928115225
12.660028            0.314183215     0.928411834   0.000344786719   -0.0001481979   0.000344786719   -0.0001481979      0.316021625     0.927957747
12.660056            0.314599637     0.928253545   0.000345337504 -0.000148634236   0.000345337504 -0.000148634235      0.316434725     0.927799954
12.660084            0.315016304      0.92809493   0.000345889305 -0.000149071891   0.000345889305 -0.000149071891      0.316848074     0.927641837
12.660112            0.315433248     0.927935978   0.000346442114  -0.00014951088   0.000346442114  -0.00014951088      0.317261698     0.927483387
12.66014             0.315850502     0.927776678   0.000346995926 -0.000149951216   0.000346995926 -0.000149951216      0.317675622     0.927324594
12.660168            0.316268066     0.927617027   0.000347550742 -0.000150392904   0.000347550742 -0.000150392903      0.318089847     0.927165458
12.660196            0.316685918     0.927457034    0.00034810657 -0.000150835941    0.00034810657 -0.000150835941      0.318504356     0.927005984
12.660224             0.31710406     0.927296697   0.000348663411 -0.000151280333   0.000348663411 -0.000151280333      0.318919149      0.92684617
12.660252            0.317522491     0.927136016   0.000349221267 -0.000151726084   0.000349221267 -0.000151726084      0.319334227     0.926686017
12.66028             0.317941211     0.926974989   0.000349780141 -0.000152173199   0.000349780141 -0.000152173199       0.31974959     0.926525524
12.660308            0.318360222     0.926813616   0.000350340034 -0.000152621682   0.000350340034 -0.000152621682      0.320165238     0.926364689
12.660336            0.318779523     0.926651897   0.000350900948 -0.000153071538   0.000350900948 -0.000153071538      0.320581172     0.926203512
12.660364            0.319199115      0.92648983   0.000351462884 -0.000153522772   0.000351462884 -0.000153522771      0.320997392     0.926041993
12.660392            0.319618997     0.926327414   0.000352025846 -0.000153975387   0.000352025846 -0.000153975387      0.321413897      0.92588013
12.66042             0.320039171      0.92616465   0.000352589833  -0.00015442939   0.000352589834 -0.000154429389      0.321830689     0.925717923
12.660448            0.320459636     0.926001536    0.00035315485 -0.000154884784    0.00035315485 -0.000154884783      0.322247768     0.925555371
12.660476            0.320880394     0.925838071   0.000353720896 -0.000155341574   0.000353720896 -0.000155341573      0.322665134     0.925392474
12.660504            0.321301443     0.925674255   0.000354287975 -0.000155799765   0.000354287975 -0.000155799764      0.323082787      0.92522923
12.660532            0.321722785     0.925510087   0.000354856088 -0.000156259361   0.000354856088 -0.000156259361      0.323500728     0.925065639
12.66056             0.322144419     0.925345566   0.000355425237 -0.000156720368   0.000355425237 -0.000156720367      0.323918956     0.924901701
12.660588            0.322566347     0.925180692   0.000355995423  -0.00015718279   0.000355995423 -0.000157182789      0.324337473     0.924737413
12.660616            0.322988568     0.925015463    0.00035656665 -0.000157646631    0.00035656665 -0.000157646631      0.324756278     0.924572776
12.660644            0.323411082     0.924849879   0.000357138918 -0.000158111898   0.000357138918 -0.000158111897      0.325175372     0.924407789
12.660672            0.323833891     0.924683939   0.000357712229 -0.000158578594    0.00035771223 -0.000158578593      0.325594755     0.924242452
12.6607              0.324256993     0.924517643   0.000358286586 -0.000159046724   0.000358286587 -0.000159046723      0.326014427     0.924076762
12.660728            0.324680391     0.924350989   0.000358861991 -0.000159516293   0.000358861991 -0.000159516293      0.326434389      0.92391072
12.660756            0.325104083     0.924183976   0.000359438444 -0.000159987306   0.000359438444 -0.000159987306      0.326854642     0.923744325
12.660784            0.325528071     0.924016605   0.000360015949 -0.000160459769   0.000360015949 -0.000160459768      0.327275184     0.923577576
12.660812            0.325952353     0.923848874   0.000360594507 -0.000160933685   0.000360594507 -0.000160933684      0.327696017     0.923410473
12.66084             0.326376932     0.923680782   0.000361174119 -0.000161409059    0.00036117412 -0.000161409059       0.32811714     0.923243014
12.660868            0.326801807     0.923512329   0.000361754789 -0.000161885898   0.000361754789 -0.000161885897      0.328538555     0.923075198
12.660896            0.327226978     0.923343514   0.000362336517 -0.000162364205   0.000362336517 -0.000162364204      0.328960261     0.922907026
12.660924            0.327652446     0.923174335   0.000362919306 -0.000162843985   0.000362919306 -0.000162843985       0.32938226     0.922738496
12.660952            0.328078211     0.923004793   0.000363503158 -0.000163325244   0.000363503158 -0.000163325244       0.32980455     0.922569607
12.66098             0.328504273     0.922834886   0.000364088074 -0.000163807987   0.000364088074 -0.000163807987      0.330227132     0.922400359
12.661008            0.328930633     0.922664614   0.000364674056 -0.000164292219   0.000364674056 -0.000164292218      0.330650007     0.922230751
12.661036            0.329357291     0.922493976   0.000365261107 -0.000164777944   0.000365261107 -0.000164777943      0.331073175     0.922060782
12.661064            0.329784247     0.922322971   0.000365849228 -0.000165265168   0.000365849228 -0.000165265167      0.331496636     0.921890451
12.661092            0.330211502     0.922151597   0.000366438421 -0.000165753895   0.000366438421 -0.000165753895      0.331920391     0.921719757
12.66112             0.330639056     0.921979856   0.000367028689 -0.000166244132   0.000367028689 -0.000166244132       0.33234444     0.921548701
12.661148            0.331066909     0.921807745   0.000367620032 -0.000166735883   0.000367620032 -0.000166735882      0.332768783      0.92137728
12.661176            0.331495061     0.921635263   0.000368212453 -0.000167229153   0.000368212453 -0.000167229152       0.33319342     0.921205494
12.661204            0.331923513     0.921462411   0.000368805955 -0.000167723947   0.000368805955 -0.000167723947      0.333618352     0.921033343
12.661232            0.332352265     0.921289186   0.000369400538 -0.000168220271   0.000369400538 -0.000168220271      0.334043579     0.920860825
12.66126             0.332781318     0.921115589   0.000369996204  -0.00016871813   0.000369996205  -0.00016871813      0.334469102      0.92068794
12.661288            0.333210671     0.920941619   0.000370592957 -0.000169217529   0.000370592957 -0.000169217528       0.33489492     0.920514687
12.661316            0.333640326     0.920767274   0.000371190797 -0.000169718473   0.000371190797 -0.000169718473      0.335321034     0.920341065
12.661344            0.334070282     0.920592554   0.000371789727 -0.000170220968   0.000371789727 -0.000170220967      0.335747444     0.920167073
12.661372            0.334500539     0.920417458   0.000372389748 -0.000170725018   0.000372389748 -0.000170725018      0.336174151     0.919992711
12.6614              0.334931099     0.920241985   0.000372990863  -0.00017123063   0.000372990863 -0.000171230629      0.336601155     0.919817978
12.661428             0.33536196     0.920066134   0.000373593073 -0.000171737808   0.000373593073 -0.000171737807      0.337028456     0.919642872
12.661456            0.335793125     0.919889905   0.000374196381 -0.000172246557   0.000374196381 -0.000172246557      0.337456055     0.919467393
12.661484            0.336224592     0.919713296   0.000374800788 -0.000172756884   0.000374800788 -0.000172756884      0.337883951     0.919291541
12.661512            0.336656363     0.919536308   0.000375406296 -0.000173268794   0.000375406296 -0.000173268793      0.338312145     0.919115314
12.66154             0.337088437     0.919358938   0.000376012907 -0.000173782291   0.000376012907 -0.000173782291      0.338740638     0.918938711
12.661568            0.337520815     0.919181186   0.000376620623 -0.000174297382   0.000376620624 -0.000174297381       0.33916943     0.918761732
12.661596            0.337953497     0.919003052   0.000377229447 -0.000174814071   0.000377229447 -0.000174814071       0.33959852     0.918584377
12.661624            0.338386484     0.918824534    0.00037783938 -0.000175332365    0.00037783938 -0.000175332365       0.34002791     0.918406643
12.661652            0.338819775     0.918645631   0.000378450423 -0.000175852269   0.000378450423 -0.000175852268      0.340457599      0.91822853
12.66168             0.339253372     0.918466344    0.00037906258 -0.000176373787    0.00037906258 -0.000176373787      0.340887589     0.918050038
12.661708            0.339687274      0.91828667   0.000379675852 -0.000176896927   0.000379675852 -0.000176896927      0.341317878     0.917871166
12.661736            0.340121482     0.918106609    0.00038029024 -0.000177421693    0.00038029024 -0.000177421692      0.341748468     0.917691912
12.661764            0.340555996      0.91792616   0.000380905748 -0.000177948091   0.000380905748  -0.00017794809      0.342179359     0.917512276
12.661792            0.340990816     0.917745322   0.000381522376 -0.000178476126   0.000381522376 -0.000178476126      0.342610552     0.917332257
12.66182             0.341425943     0.917564095   0.000382140127 -0.000179005805   0.000382140127 -0.000179005804      0.343042045     0.917151854
12.661848            0.341861377     0.917382477   0.000382759003 -0.000179537132   0.000382759003 -0.000179537131      0.343473841     0.916971067
12.661876            0.342297118     0.917200468   0.000383379006 -0.000180070113   0.000383379006 -0.000180070113      0.343905938     0.916789894
12.661904            0.342733167     0.917018067   0.000384000137 -0.000180604755   0.000384000137 -0.000180604754      0.344338338     0.916608335
12.661932            0.343169525     0.916835272   0.000384622399 -0.000181141062   0.000384622399 -0.000181141062      0.344771041     0.916426388
12.66196              0.34360619     0.916652084   0.000385245794 -0.000181679041   0.000385245794 -0.000181679041      0.345204046     0.916244053
12.661988            0.344043164       0.9164685   0.000385870323 -0.000182218697   0.000385870323 -0.000182218697      0.345637355      0.91606133
12.662016            0.344480447     0.916284521   0.000386495989 -0.000182760036   0.000386495989 -0.000182760036      0.346070968     0.915878216
12.662044            0.344918039     0.916100145   0.000387122794 -0.000183303064   0.000387122794 -0.000183303064      0.346504884     0.915694712
12.662072            0.345355941     0.915915371   0.000387750739 -0.000183847787   0.000387750739 -0.000183847786      0.346939105     0.915510817
12.6621              0.345794152     0.915730199   0.000388379826  -0.00018439421   0.000388379826 -0.000184394209       0.34737363     0.915326528
12.662128            0.346232674     0.915544628   0.000389010059 -0.000184942339   0.000389010059 -0.000184942338       0.34780846     0.915141847
12.662156            0.346671506     0.915358656   0.000389641437  -0.00018549218   0.000389641437 -0.000185492179      0.348243596     0.914956771
12.662184             0.34711065     0.915172283   0.000390273965 -0.000186043739   0.000390273965 -0.000186043738      0.348679036     0.914771301
12.662212            0.347550104     0.914985508   0.000390907642 -0.000186597022   0.000390907642 -0.000186597022      0.349114783     0.914585434
12.66224              0.34798987     0.914798331   0.000391542473 -0.000187152035   0.000391542473 -0.000187152035      0.349550836      0.91439917
12.662268            0.348429948     0.914610749   0.000392178457 -0.000187708784   0.000392178457 -0.000187708783      0.349987195     0.914212509
12.662296            0.348870338     0.914422762   0.000392815599 -0.000188267275   0.000392815599 -0.000188267274      0.350423861     0.914025449
12.662324             0.34931104      0.91423437   0.000393453898 -0.000188827513   0.000393453898 -0.000188827513      0.350860834      0.91383799
12.662352            0.349752055     0.914045571   0.000394093358 -0.000189389505   0.000394093358 -0.000189389505      0.351298114      0.91365013
12.66238             0.350193383     0.913856364   0.000394733981 -0.000189953258   0.000394733981 -0.000189953257      0.351735702     0.913461869
12.662408            0.350635025     0.913666749   0.000395375768 -0.000190518776   0.000395375768 -0.000190518775      0.352173598     0.913273205
12.662436             0.35107698     0.913476725   0.000396018721 -0.000191086066   0.000396018721 -0.000191086066      0.352611803     0.913084139
12.662464             0.35151925      0.91328629   0.000396662843 -0.000191655135   0.000396662843 -0.000191655134      0.353050316     0.912894668
12.662492            0.351961834     0.913095444   0.000397308135 -0.000192225987   0.000397308135 -0.000192225987      0.353489138     0.912704793
12.66252             0.352404732     0.912904185   0.000397954599 -0.000192798631   0.000397954599  -0.00019279863      0.353928269     0.912514512
12.662548            0.352847946     0.912712514   0.000398602238 -0.000193373071   0.000398602238  -0.00019337307       0.35436771     0.912323824
12.662576            0.353291475     0.912520428   0.000399251053 -0.000193949314   0.000399251054 -0.000193949313       0.35480746     0.912132728
12.662604             0.35373532     0.912327928   0.000399901047 -0.000194527366   0.000399901047 -0.000194527365      0.355247521     0.911941223
12.662632             0.35417948     0.912135011   0.000400552221 -0.000195107233   0.000400552221 -0.000195107233      0.355687892      0.91174931
12.66266             0.354623957     0.911941678   0.000401204578 -0.000195688923   0.000401204578 -0.000195688922      0.356128575     0.911556985
12.662688            0.355068751     0.911747926   0.000401858119  -0.00019627244   0.000401858119 -0.000196272439      0.356569568     0.911364249
12.662716            0.355513862     0.911553756   0.000402512846 -0.000196857792   0.000402512846 -0.000196857791      0.357010873     0.911171101
12.662744             0.35595929     0.911359166   0.000403168762 -0.000197444984   0.000403168762 -0.000197444983      0.357452489      0.91097754
12.662772            0.356405036     0.911164155   0.000403825868 -0.000198034023   0.000403825868 -0.000198034023      0.357894418     0.910783565
12.6628              0.356851099     0.910968723   0.000404484166 -0.000198624916   0.000404484167 -0.000198624916      0.358336659     0.910589174
12.662828            0.357297481     0.910772867   0.000405143659 -0.000199217669   0.000405143659 -0.000199217668      0.358779213     0.910394367
12.662856            0.357744182     0.910576589   0.000405804349 -0.000199812288   0.000405804349 -0.000199812288       0.35922208     0.910199144
12.662884            0.358191201     0.910379885   0.000406466237  -0.00020040878   0.000406466237  -0.00020040878       0.35966526     0.910003502
12.662912             0.35863854     0.910182756   0.000407129325 -0.000201007152   0.000407129325 -0.000201007151      0.360108754     0.909807442
12.66294             0.359086199       0.9099852   0.000407793616 -0.000201607409   0.000407793616 -0.000201607409      0.360552562     0.909610961
12.662968            0.359534177     0.909787217   0.000408459111 -0.000202209559   0.000408459111 -0.000202209558      0.360996684      0.90941406
12.662996            0.359982476     0.909588805   0.000409125812 -0.000202813608   0.000409125812 -0.000202813607      0.361441121     0.909216737
12.663024            0.360431095     0.909389964   0.000409793722 -0.000203419562   0.000409793722 -0.000203419562      0.361885872     0.909018991
12.663052            0.360880035     0.909190692   0.000410462843 -0.000204027429   0.000410462843 -0.000204027429      0.362330939     0.908820822
12.66308             0.361329297     0.908990989   0.000411133176 -0.000204637215   0.000411133176 -0.000204637214      0.362776322     0.908622228
12.663108             0.36177888     0.908790853   0.000411804723 -0.000205248926   0.000411804724 -0.000205248926      0.363222021     0.908423208
12.663136            0.362228785     0.908590284   0.000412477488  -0.00020586257   0.000412477488 -0.000205862569      0.363668035     0.908223762
12.663164            0.362679012      0.90838928    0.00041315147 -0.000206478153    0.00041315147 -0.000206478152      0.364114367     0.908023888
12.663192            0.363129561     0.908187841   0.000413826673 -0.000207095681   0.000413826673 -0.000207095681      0.364561015     0.907823586
12.66322             0.363580434     0.907985965   0.000414503099 -0.000207715163   0.000414503099 -0.000207715162       0.36500798     0.907622854
12.663248             0.36403163     0.907783651   0.000415180749 -0.000208336603   0.000415180749 -0.000208336603      0.365455263     0.907421691
12.663276            0.364483149       0.9075809   0.000415859626  -0.00020896001   0.000415859626 -0.000208960009      0.365902864     0.907220097
12.663304            0.364934993     0.907377708   0.000416539731  -0.00020958539   0.000416539731 -0.000209585389      0.366350783     0.907018071
12.663332             0.36538716     0.907174076   0.000417221067  -0.00021021275   0.000417221067 -0.000210212749      0.366799021     0.906815611
12.66336             0.365839652     0.906970003   0.000417903635 -0.000210842097   0.000417903636 -0.000210842096      0.367247577     0.906612716
12.663388            0.366292469     0.906765486   0.000418587439 -0.000211473438   0.000418587439 -0.000211473437      0.367696452     0.906409386
12.663416            0.366745611     0.906560527   0.000419272478 -0.000212106779   0.000419272478 -0.000212106779      0.368145647      0.90620562
12.663444            0.367199079     0.906355122   0.000419958757 -0.000212742129   0.000419958757 -0.000212742128      0.368595162     0.906001416
12.663472            0.367652873     0.906149272   0.000420646276 -0.000213379493   0.000420646276 -0.000213379492      0.369044996     0.905796773
12.6635              0.368106993     0.905942975   0.000421335037 -0.000214018879   0.000421335037 -0.000214018879      0.369495151     0.905591691
12.663528            0.368561439      0.90573623   0.000422025044 -0.000214660294   0.000422025044 -0.000214660294      0.369945627     0.905386169
12.663556            0.369016212     0.905529037   0.000422716297 -0.000215303746   0.000422716297 -0.000215303745      0.370396424     0.905180205
12.663584            0.369471313     0.905321393   0.000423408798  -0.00021594924   0.000423408798  -0.00021594924      0.370847542     0.904973798
12.663612            0.369926741     0.905113299   0.000424102551 -0.000216596785   0.000424102551 -0.000216596784      0.371298982     0.904766948
12.66364             0.370382497     0.904904753   0.000424797556 -0.000217246387   0.000424797556 -0.000217246387      0.371750744     0.904559653
12.663668            0.370838581     0.904695753   0.000425493815 -0.000217898055   0.000425493816 -0.000217898054      0.372202828     0.904351913
12.663696            0.371294993       0.9044863   0.000426191332 -0.000218551794   0.000426191332 -0.000218551793      0.372655235     0.904143726
12.663724            0.371751735     0.904276391   0.000426890107 -0.000219207613   0.000426890107 -0.000219207612      0.373107965     0.903935091
12.663752            0.372208806     0.904066027   0.000427590143 -0.000219865518   0.000427590143 -0.000219865517      0.373561019     0.903726008
12.66378             0.372666206     0.903855205   0.000428291442 -0.000220525517   0.000428291442 -0.000220525516      0.374014396     0.903516474
12.663808            0.373123936     0.903643924   0.000428994006 -0.000221187617   0.000428994006 -0.000221187617      0.374468097      0.90330649
12.663836            0.373581996     0.903432184   0.000429697836 -0.000221851826   0.000429697836 -0.000221851826      0.374922122     0.903096054
12.663864            0.374040387     0.903219984   0.000430402935 -0.000222518151   0.000430402935 -0.000222518151      0.375376472     0.902885165
12.663892            0.374499109     0.903007322   0.000431109305   -0.0002231866   0.000431109305 -0.000223186599      0.375831147     0.902673822
12.66392             0.374958162     0.902794198   0.000431816947  -0.00022385718   0.000431816947 -0.000223857179      0.376286147     0.902462024
12.663948            0.375417547     0.902580609   0.000432525865 -0.000224529898   0.000432525865 -0.000224529897      0.376741473      0.90224977
12.663976            0.375877264     0.902366556   0.000433236059 -0.000225204762   0.000433236059 -0.000225204761      0.377197124     0.902037059
12.664004            0.376337312     0.902152037   0.000433947532  -0.00022588178   0.000433947532 -0.000225881779      0.377653102      0.90182389
12.664032            0.376797694     0.901937051   0.000434660286 -0.000226560958   0.000434660286 -0.000226560958      0.378109407     0.901610261
12.66406             0.377258408     0.901721596   0.000435374322 -0.000227242306   0.000435374322 -0.000227242306      0.378566038     0.901396172
12.664088            0.377719455     0.901505673   0.000436089644  -0.00022792583   0.000436089644  -0.00022792583      0.379022997     0.901181621
12.664116            0.378180836     0.901289279   0.000436806252 -0.000228611538   0.000436806252 -0.000228611538      0.379480283     0.900966608
12.664144            0.378642552     0.901072413   0.000437524149 -0.000229299438   0.000437524149 -0.000229299438      0.379937897     0.900751132
12.664172            0.379104601     0.900855075   0.000438243336 -0.000229989538   0.000438243337 -0.000229989537       0.38039584      0.90053519
12.6642              0.379566985     0.900637264   0.000438963817 -0.000230681844   0.000438963817 -0.000230681844      0.380854111     0.900318783
12.664228            0.380029703     0.900418977   0.000439685592 -0.000231376366   0.000439685592 -0.000231376366      0.381312711     0.900101909
12.664256            0.380492758     0.900200215   0.000440408664 -0.000232073111   0.000440408665  -0.00023207311       0.38177164     0.899884567
12.664284            0.380956147     0.899980975   0.000441133035 -0.000232772087   0.000441133035 -0.000232772086      0.382230898     0.899666756
12.664312            0.381419873     0.899761257   0.000441858707 -0.000233473301   0.000441858707   -0.0002334733      0.382690486     0.899448475
12.66434             0.381883935      0.89954106   0.000442585681 -0.000234176761   0.000442585681 -0.000234176761      0.383150405     0.899229723
12.664368            0.382348333     0.899320382    0.00044331396 -0.000234882477    0.00044331396 -0.000234882476      0.383610654     0.899010498
12.664396            0.382813069     0.899099223   0.000444043546 -0.000235590454   0.000444043546 -0.000235590454      0.384071234       0.8987908
12.664424            0.383278142     0.898877581   0.000444774441 -0.000236300703   0.000444774441 -0.000236300702      0.384532145     0.898570627
12.664452            0.383743552     0.898655455   0.000445506646 -0.000237013229   0.000445506646 -0.000237013229      0.384993388     0.898349978
12.66448               0.3842093     0.898432844   0.000446240164 -0.000237728043   0.000446240164 -0.000237728042      0.385454962     0.898128852
12.664508            0.384675387     0.898209747   0.000446974997 -0.000238445151   0.000446974997  -0.00023844515      0.385916869     0.897907249
12.664536            0.385141813     0.897986162   0.000447711146 -0.000239164562   0.000447711146 -0.000239164561      0.386379108     0.897685166
12.664564            0.385608577     0.897762089   0.000448448614 -0.000239886284   0.000448448614 -0.000239886283       0.38684168     0.897462603
12.664592            0.386075681     0.897537526   0.000449187402 -0.000240610325   0.000449187402 -0.000240610324      0.387304585     0.897239559
12.66462             0.386543124     0.897312472   0.000449927513 -0.000241336694   0.000449927513 -0.000241336693      0.387767824     0.897016032
12.664648            0.387010908     0.897086926   0.000450668949 -0.000242065398   0.000450668949 -0.000242065397      0.388231396     0.896792022
12.664676            0.387479032     0.896860887   0.000451411711 -0.000242796446   0.000451411711 -0.000242796445      0.388695303     0.896567527
12.664704            0.387947496     0.896634354   0.000452155801 -0.000243529847   0.000452155801 -0.000243529846      0.389159544     0.896342546
12.664732            0.388416302     0.896407324   0.000452901222 -0.000244265608   0.000452901222 -0.000244265607       0.38962412     0.896117077
12.66476             0.388885449     0.896179798   0.000453647975 -0.000245003738   0.000453647976 -0.000245003738      0.390089031     0.895891121
12.664788            0.389354938     0.895951774   0.000454396063 -0.000245744246   0.000454396063 -0.000245744245      0.390554277     0.895664675
12.664816            0.389824768     0.895723251   0.000455145487  -0.00024648714   0.000455145487 -0.000246487139       0.39101986     0.895437738
12.664844            0.390294942     0.895494228   0.000455896249 -0.000247232428    0.00045589625 -0.000247232427      0.391485778      0.89521031
12.664872            0.390765458     0.895264702   0.000456648352 -0.000247980119   0.000456648352 -0.000247980119      0.391952033     0.894982389
12.6649              0.391236317     0.895034674   0.000457401797 -0.000248730222   0.000457401797 -0.000248730221      0.392418625     0.894753973
12.664928            0.391707519     0.894804142   0.000458156586 -0.000249482745   0.000458156586 -0.000249482744      0.392885554     0.894525063
12.664956            0.392179065     0.894573105   0.000458912721 -0.000250237696   0.000458912721 -0.000250237695       0.39335282     0.894295656
12.664984            0.392650956     0.894341561   0.000459670204 -0.000250995085   0.000459670204 -0.000250995084      0.393820424     0.894065751
12.665012            0.393123191      0.89410951   0.000460429037  -0.00025175492   0.000460429037 -0.000251754919      0.394288366     0.893835347
12.66504              0.39359577      0.89387695   0.000461189222 -0.000252517209   0.000461189222 -0.000252517209      0.394756647     0.893604444
12.665068            0.394068695     0.893643879    0.00046195076 -0.000253281963   0.000461950761 -0.000253281962      0.395225266     0.893373039
12.665096            0.394541966     0.893410297   0.000462713655 -0.000254049188   0.000462713655 -0.000254049188      0.395694225     0.893141131
12.665124            0.395015582     0.893176203   0.000463477907 -0.000254818895   0.000463477907 -0.000254818894      0.396163523      0.89290872
12.665152            0.395489544     0.892941595   0.000464243519 -0.000255591092   0.000464243519 -0.000255591091      0.396633161     0.892675805
12.66518             0.395963853     0.892706471   0.000465010493 -0.000256365788   0.000465010493 -0.000256365787      0.397103139     0.892442383
12.665208            0.396438509     0.892470832    0.00046577883 -0.000257142991    0.00046577883 -0.000257142991      0.397573457     0.892208453
12.665236            0.396913512     0.892234674   0.000466548532 -0.000257922712   0.000466548532 -0.000257922711      0.398044116     0.891974016
12.665264            0.397388862     0.891997998   0.000467319602 -0.000258704958   0.000467319602 -0.000258704957      0.398515117     0.891739068
12.665292            0.397864561     0.891760802   0.000468092041 -0.000259489739   0.000468092041 -0.000259489738      0.398986458      0.89150361
12.66532             0.398340607     0.891523084   0.000468865851 -0.000260277064   0.000468865851 -0.000260277063      0.399458142      0.89126764
12.665348            0.398817003     0.891284844   0.000469641034 -0.000261066942   0.000469641034 -0.000261066941      0.399930168     0.891031156
12.665376            0.399293747      0.89104608   0.000470417592 -0.000261859382   0.000470417593 -0.000261859381      0.400402536     0.890794157
12.665404             0.39977084      0.89080679   0.000471195528 -0.000262654394   0.000471195528 -0.000262654393      0.400875247     0.890556643