! TOUCHSTONE file generated by CST MICROWAVE STUDIO
! Date and time: Wed Jul 31 16:56:46 2024
! Project name: WaveGuide_BPF-Ver4.1_U-shape_Ku_T3_C4_CWA_2.cst
! Parameters = {cavity_h=16; cavity_l0=10; cavity_l1=15.1608; cavity_l2=16.8086; cavity_l3=17.1054; cavity_l4=17.2429; cavity_l5=17.1575; cavity_l6=17.5666; cavity_r=2.5; cavity_screw_l=0.5; cavity_screw_r=1.5; cavity_w=8; iris_h00=0; iris_h01=8.8402; iris_h112=0; iris_h12=5.5957; iris_h211=3.6542; iris_h23=5.2049; iris_h310=3.9662; iris_h34=5.0701; iris_h45=4.9311; iris_h49=4.6108; iris_h56=4.799; iris_h58=4.446; iris_h67=6.588; iris_rx=0.1; iris_screw_l=0.5; iris_screw_r=1.5; iris_shift00=0; iris_shift112=0; iris_shift211=3.5; iris_shift310=0; iris_shift49=0; iris_shift58=3.5; iris_shift67=3.5; iris_tx=4.5; iris_tz=4.5; iris_w00=0; iris_w112=0; iris_w211=4; iris_w310=3.9662; iris_w49=4.6108; iris_w58=4; iris_w67=4; mesh_cavity=5; mesh_iris=7; mesh_screw=7; order=12; reset_all=0; sigma=4.8e+07}
! Header version: 2018
! Port assignment regex: !\s*Touchstone port\s*([0-9]+)\s*=\s*(CST MWS port|CST DS port)\s*([0-9]+|Zmin|Zmax)\s*\(\"(.*)\"\)(\s*mode\s*([0-9]+))?.*
! Touchstone port assignment:
! Touchstone port 1 = CST MWS port 1 ("")
! Touchstone port 2 = CST MWS port 2 ("")
# GHz S RI R 50
12.66                0.257373065      0.94978051   0.000143958844 -4.78074964e-05   0.000143958843 -4.78074967e-05      0.247957043     0.952387768
12.660028            0.257710911     0.949679179   0.000144139117 -4.79273831e-05   0.000144139117 -4.79273834e-05      0.248292958      0.95229068
12.660056            0.258049079     0.949577619   0.000144319637 -4.80475689e-05   0.000144319637 -4.80475692e-05      0.248629068     0.952193402
12.660084            0.258387507     0.949475847   0.000144500407 -4.81680499e-05   0.000144500407 -4.81680502e-05      0.248965365     0.952095937
12.660112            0.258726134     0.949373877   0.000144681431 -4.82888221e-05    0.00014468143 -4.82888224e-05      0.249301841     0.951998284
12.66014             0.259064898     0.949271728   0.000144862711 -4.84098816e-05   0.000144862711 -4.84098819e-05       0.24963849     0.951900447
12.660168            0.259403799     0.949169398   0.000145044249  -4.8531229e-05   0.000145044249 -4.85312293e-05      0.249975312     0.951802424
12.660196            0.259742877     0.949066876   0.000145226043 -4.86528683e-05   0.000145226042 -4.86528686e-05      0.250312311     0.951704214
12.660224            0.260082134     0.948964162   0.000145408092 -4.87748003e-05   0.000145408092 -4.87748006e-05      0.250649489     0.951605817
12.660252             0.26042157     0.948861255   0.000145590398 -4.88970256e-05   0.000145590398 -4.88970259e-05      0.250986844     0.951507232
12.66028             0.260761184     0.948758156   0.000145772961 -4.90195449e-05   0.000145772961 -4.90195452e-05      0.251324377      0.95140846
12.660308            0.261100976     0.948654864   0.000145955781 -4.91423592e-05    0.00014595578 -4.91423595e-05      0.251662089       0.9513095
12.660336            0.261440948     0.948551378   0.000146138858  -4.9265469e-05   0.000146138858 -4.92654693e-05      0.251999979     0.951210351
12.660364            0.261781098     0.948447698   0.000146322193 -4.93888752e-05   0.000146322193 -4.93888755e-05      0.252338048     0.951111014
12.660392            0.262121427     0.948343825   0.000146505786 -4.95125784e-05   0.000146505786 -4.95125787e-05      0.252676295     0.951011487
12.66042             0.262461936     0.948239757   0.000146689638 -4.96365796e-05   0.000146689638 -4.96365799e-05       0.25301472     0.950911772
12.660448            0.262802624     0.948135495   0.000146873749 -4.97608793e-05   0.000146873748 -4.97608796e-05      0.253353325     0.950811867
12.660476            0.263143491     0.948031037   0.000147058119 -4.98854784e-05   0.000147058118 -4.98854787e-05      0.253692108     0.950711772
12.660504            0.263484537     0.947926385   0.000147242748 -5.00103777e-05   0.000147242748  -5.0010378e-05      0.254031071     0.950611487
12.660532            0.263825764     0.947821537   0.000147427638 -5.01355779e-05   0.000147427638 -5.01355782e-05      0.254370213     0.950511011
12.66056              0.26416717     0.947716493   0.000147612788 -5.02610797e-05   0.000147612788   -5.026108e-05      0.254709534     0.950410344
12.660588            0.264508756     0.947611253   0.000147798198  -5.0386884e-05   0.000147798198 -5.03868843e-05      0.255049035     0.950309487
12.660616            0.264850522     0.947505816    0.00014798387 -5.05129915e-05    0.00014798387 -5.05129918e-05      0.255388715     0.950208438
12.660644            0.265192468     0.947400183   0.000148169804  -5.0639403e-05   0.000148169803 -5.06394033e-05      0.255728575     0.950107198
12.660672            0.265534595     0.947294352   0.000148355999 -5.07661192e-05   0.000148355998 -5.07661195e-05      0.256068614     0.950005765
12.6607              0.265876902     0.947188324   0.000148542456  -5.0893141e-05   0.000148542456 -5.08931413e-05      0.256408834      0.94990414
12.660728            0.266219389     0.947082099   0.000148729176 -5.10204691e-05   0.000148729176 -5.10204694e-05      0.256749234     0.949802323
12.660756            0.266562057     0.946975675   0.000148916159 -5.11481042e-05   0.000148916158 -5.11481045e-05      0.257089814     0.949700312
12.660784            0.266904906     0.946869053   0.000149103405 -5.12760473e-05   0.000149103404 -5.12760476e-05      0.257430574     0.949598109
12.660812            0.267247935     0.946762232   0.000149290914  -5.1404299e-05   0.000149290914 -5.14042993e-05      0.257771514     0.949495712
12.66084             0.267591146     0.946655213   0.000149478688 -5.15328602e-05   0.000149478688 -5.15328605e-05      0.258112636     0.949393121
12.660868            0.267934538     0.946547994   0.000149666726 -5.16617316e-05   0.000149666726 -5.16617319e-05      0.258453937     0.949290336
12.660896            0.268278111     0.946440575   0.000149855029 -5.17909141e-05   0.000149855029 -5.17909144e-05       0.25879542     0.949187356
12.660924            0.268621865     0.946332957   0.000150043598 -5.19204084e-05   0.000150043597 -5.19204087e-05      0.259137084     0.949084182
12.660952            0.268965801     0.946225138   0.000150232431 -5.20502153e-05   0.000150232431 -5.20502156e-05      0.259478928     0.948980813
12.66098             0.269309918     0.946117118   0.000150421531 -5.21803356e-05   0.000150421531 -5.21803359e-05      0.259820954     0.948877248
12.661008            0.269654217     0.946008898   0.000150610897 -5.23107702e-05   0.000150610896 -5.23107705e-05      0.260163162     0.948773488
12.661036            0.269998698     0.945900477   0.000150800529 -5.24415198e-05   0.000150800529 -5.24415201e-05       0.26050555     0.948669532
12.661064            0.270343361     0.945791854   0.000150990428 -5.25725852e-05   0.000150990428 -5.25725855e-05       0.26084812     0.948565379
12.661092            0.270688206     0.945683029   0.000151180595 -5.27039673e-05   0.000151180595 -5.27039676e-05      0.261190872      0.94846103
12.66112             0.271033233     0.945574002    0.00015137103 -5.28356668e-05   0.000151371029 -5.28356671e-05      0.261533806     0.948356483
12.661148            0.271378443     0.945464772   0.000151561732 -5.29676845e-05   0.000151561732 -5.29676848e-05      0.261876921      0.94825174
12.661176            0.271723835      0.94535534   0.000151752703 -5.31000214e-05   0.000151752703 -5.31000217e-05      0.262220219     0.948146799
12.661204            0.272069409     0.945245704   0.000151943943 -5.32326781e-05   0.000151943943 -5.32326784e-05      0.262563699      0.94804166
12.661232            0.272415166     0.945135865   0.000152135452 -5.33656556e-05   0.000152135452 -5.33656559e-05      0.262907361     0.947936323
12.66126             0.272761106     0.945025822   0.000152327231 -5.34989545e-05   0.000152327231 -5.34989548e-05      0.263251205     0.947830787
12.661288            0.273107229     0.944915575    0.00015251928 -5.36325759e-05    0.00015251928 -5.36325762e-05      0.263595232     0.947725053
12.661316            0.273453536     0.944805124   0.000152711599 -5.37665204e-05   0.000152711599 -5.37665207e-05      0.263939442     0.947619119
12.661344            0.273800025     0.944694468   0.000152904189 -5.39007889e-05   0.000152904189 -5.39007892e-05      0.264283835     0.947512986
12.661372            0.274146697     0.944583607    0.00015309705 -5.40353822e-05    0.00015309705 -5.40353825e-05       0.26462841     0.947406653
12.6614              0.274493553      0.94447254   0.000153290182 -5.41703013e-05   0.000153290182 -5.41703015e-05      0.264973169      0.94730012
12.661428            0.274840593     0.944361267   0.000153483586 -5.43055468e-05   0.000153483586 -5.43055471e-05       0.26531811     0.947193387
12.661456            0.275187816     0.944249789   0.000153677263 -5.44411196e-05   0.000153677263 -5.44411199e-05      0.265663235     0.947086453
12.661484            0.275535223     0.944138104   0.000153871212 -5.45770206e-05   0.000153871212 -5.45770209e-05      0.266008544     0.946979318
12.661512            0.275882814     0.944026212   0.000154065434 -5.47132507e-05   0.000154065434  -5.4713251e-05      0.266354036     0.946871981
12.66154             0.276230589     0.943914113   0.000154259929 -5.48498106e-05   0.000154259929 -5.48498109e-05      0.266699711     0.946764443
12.661568            0.276578548     0.943801807   0.000154454699 -5.49867012e-05   0.000154454698 -5.49867015e-05      0.267045571     0.946656702
12.661596            0.276926692     0.943689293   0.000154649742 -5.51239234e-05   0.000154649742 -5.51239236e-05      0.267391614      0.94654876
12.661624             0.27727502     0.943576571    0.00015484506 -5.52614779e-05   0.000154845059 -5.52614782e-05      0.267737841     0.946440614
12.661652            0.277623532     0.943463641   0.000155040652 -5.53993657e-05   0.000155040652  -5.5399366e-05      0.268084253     0.946332266
12.66168             0.277972229     0.943350501    0.00015523652 -5.55375877e-05    0.00015523652  -5.5537588e-05      0.268430849     0.946223714
12.661708            0.278321111     0.943237153   0.000155432663 -5.56761446e-05   0.000155432663 -5.56761449e-05      0.268777629     0.946114959
12.661736            0.278670178     0.943123595   0.000155629083 -5.58150373e-05   0.000155629083 -5.58150376e-05      0.269124594     0.946005999
12.661764             0.27901943     0.943009828   0.000155825779 -5.59542667e-05   0.000155825778  -5.5954267e-05      0.269471743     0.945896835
12.661792            0.279368867      0.94289585   0.000156022751 -5.60938337e-05   0.000156022751  -5.6093834e-05      0.269819077     0.945787467
12.66182             0.279718489     0.942781662   0.000156220001 -5.62337391e-05   0.000156220001 -5.62337394e-05      0.270166597     0.945677894
12.661848            0.280068296     0.942667264   0.000156417528 -5.63739838e-05   0.000156417528  -5.6373984e-05      0.270514301     0.945568115
12.661876             0.28041829     0.942552654   0.000156615333 -5.65145686e-05   0.000156615333 -5.65145689e-05       0.27086219     0.945458131
12.661904            0.280768468     0.942437832   0.000156813417 -5.66554945e-05   0.000156813416 -5.66554948e-05      0.271210265      0.94534794
12.661932            0.281118833     0.942322799   0.000157011779 -5.67967622e-05   0.000157011778 -5.67967625e-05      0.271558525     0.945237544
12.66196             0.281469383     0.942207554    0.00015721042 -5.69383728e-05   0.000157210419 -5.69383731e-05       0.27190697     0.945126941
12.661988             0.28182012     0.942092096    0.00015740934 -5.70803271e-05    0.00015740934 -5.70803274e-05      0.272255602     0.945016131
12.662016            0.282171042     0.941976426    0.00015760854 -5.72226259e-05    0.00015760854 -5.72226262e-05      0.272604419     0.944905113
12.662044            0.282522151     0.941860542   0.000157808021 -5.73652701e-05   0.000157808021 -5.73652704e-05      0.272953422     0.944793888
12.662072            0.282873446     0.941744445   0.000158007782 -5.75082607e-05   0.000158007782 -5.75082609e-05      0.273302611     0.944682455
12.6621              0.283224928     0.941628134   0.000158207824 -5.76515984e-05   0.000158207824 -5.76515987e-05      0.273651986     0.944570814
12.662128            0.283576596     0.941511609   0.000158408147 -5.77952843e-05   0.000158408147 -5.77952846e-05      0.274001547     0.944458964
12.662156            0.283928451     0.941394869   0.000158608752 -5.79393192e-05   0.000158608752 -5.79393195e-05      0.274351295     0.944346905
12.662184            0.284280493     0.941277915   0.000158809639  -5.8083704e-05   0.000158809639 -5.80837043e-05       0.27470123     0.944234636
12.662212            0.284632722     0.941160745   0.000159010809 -5.82284396e-05   0.000159010809 -5.82284399e-05      0.275051351     0.944122158
12.66224             0.284985138      0.94104336   0.000159212261 -5.83735269e-05   0.000159212261 -5.83735272e-05      0.275401659     0.944009471
12.662268            0.285337741     0.940925758   0.000159413997 -5.85189669e-05   0.000159413997 -5.85189672e-05      0.275752154     0.943896572
12.662296            0.285690532     0.940807941   0.000159616016 -5.86647603e-05   0.000159616016 -5.86647606e-05      0.276102836     0.943783463
12.662324             0.28604351     0.940689907    0.00015981832 -5.88109082e-05   0.000159818319 -5.88109085e-05      0.276453705     0.943670144
12.662352            0.286396675     0.940571655   0.000160020907 -5.89574114e-05   0.000160020907 -5.89574117e-05      0.276804761     0.943556612
12.66238             0.286750029     0.940453187    0.00016022378 -5.91042709e-05    0.00016022378 -5.91042712e-05      0.277156005     0.943442869
12.662408             0.28710357     0.940334501   0.000160426938 -5.92514876e-05   0.000160426937 -5.92514878e-05      0.277507436     0.943328915
12.662436            0.287457299     0.940215597   0.000160630381 -5.93990623e-05   0.000160630381 -5.93990626e-05      0.277859055     0.943214747
12.662464            0.287811216     0.940096474    0.00016083411 -5.95469961e-05    0.00016083411 -5.95469964e-05      0.278210862     0.943100367
12.662492            0.288165322     0.939977133   0.000161038125 -5.96952898e-05   0.000161038125 -5.96952901e-05      0.278562856     0.942985774
12.66252             0.288519616     0.939857573   0.000161242428 -5.98439444e-05   0.000161242427 -5.98439447e-05      0.278915039     0.942870968
12.662548            0.288874098     0.939737793   0.000161447017 -5.99929608e-05   0.000161447017 -5.99929611e-05       0.27926741     0.942755947
12.662576            0.289228769     0.939617794   0.000161651894 -6.01423399e-05   0.000161651894 -6.01423402e-05      0.279619969     0.942640713
12.662604            0.289583628     0.939497574   0.000161857059 -6.02920827e-05   0.000161857058  -6.0292083e-05      0.279972717     0.942525264
12.662632            0.289938677     0.939377134   0.000162062511 -6.04421902e-05   0.000162062511 -6.04421905e-05      0.280325653     0.942409601
12.66266             0.290293914     0.939256473   0.000162268253 -6.05926631e-05   0.000162268253 -6.05926634e-05      0.280678778     0.942293722
12.662688            0.290649341     0.939135591   0.000162474284 -6.07435026e-05   0.000162474283 -6.07435029e-05      0.281032091     0.942177628
12.662716            0.291004956     0.939014487   0.000162680604 -6.08947095e-05   0.000162680603 -6.08947098e-05      0.281385594     0.942061318
12.662744            0.291360761     0.938893161   0.000162887214 -6.10462848e-05   0.000162887213 -6.10462851e-05      0.281739285     0.941944792
12.662772            0.291716756     0.938771613   0.000163094114 -6.11982295e-05   0.000163094113 -6.11982298e-05      0.282093166     0.941828049
12.6628               0.29207294     0.938649842   0.000163301304 -6.13505444e-05   0.000163301304 -6.13505447e-05      0.282447236     0.941711089
12.662828            0.292429313     0.938527849   0.000163508786 -6.15032306e-05   0.000163508786 -6.15032309e-05      0.282801496     0.941593912
12.662856            0.292785877     0.938405632   0.000163716559  -6.1656289e-05   0.000163716559 -6.16562893e-05      0.283155945     0.941476518
12.662884             0.29314263     0.938283191   0.000163924624 -6.18097206e-05   0.000163924623 -6.18097208e-05      0.283510583     0.941358905
12.662912            0.293499574     0.938160526   0.000164132981 -6.19635263e-05    0.00016413298 -6.19635266e-05      0.283865412     0.941241075
12.66294             0.293856708     0.938037637    0.00016434163 -6.21177071e-05    0.00016434163 -6.21177074e-05       0.28422043     0.941123025
12.662968            0.294214032     0.937914523   0.000164550572  -6.2272264e-05   0.000164550572 -6.22722642e-05      0.284575639     0.941004757
12.662996            0.294571546     0.937791183   0.000164759808 -6.24271979e-05   0.000164759808 -6.24271982e-05      0.284931038     0.940886269
12.663024            0.294929251     0.937667618   0.000164969338 -6.25825098e-05   0.000164969337 -6.25825101e-05      0.285286627     0.940767562
12.663052            0.295287147     0.937543827   0.000165179161 -6.27382008e-05   0.000165179161 -6.27382011e-05      0.285642406     0.940648634
12.66308             0.295645233      0.93741981   0.000165389279 -6.28942717e-05   0.000165389279  -6.2894272e-05      0.285998376     0.940529486
12.663108             0.29600351     0.937295566   0.000165599692 -6.30507236e-05   0.000165599692 -6.30507239e-05      0.286354537     0.940410117
12.663136            0.296361979     0.937171096     0.0001658104 -6.32075574e-05     0.0001658104 -6.32075577e-05      0.286710888     0.940290527
12.663164            0.296720638     0.937046397   0.000166021404 -6.33647742e-05   0.000166021404 -6.33647745e-05      0.287067431     0.940170716
12.663192            0.297079489     0.936921471   0.000166232704 -6.35223749e-05   0.000166232704 -6.35223751e-05      0.287424164     0.940050682
12.66322             0.297438531     0.936796317     0.0001664443 -6.36803605e-05     0.0001664443 -6.36803608e-05      0.287781089     0.939930427
12.663248            0.297797765     0.936670934   0.000166656194  -6.3838732e-05   0.000166656193 -6.38387323e-05      0.288138205     0.939809949
12.663276            0.298157191     0.936545323   0.000166868384 -6.39974904e-05   0.000166868384 -6.39974907e-05      0.288495512     0.939689247
12.663304            0.298516808     0.936419482   0.000167080872 -6.41566368e-05   0.000167080872 -6.41566371e-05      0.288853011     0.939568323
12.663332            0.298876617     0.936293411   0.000167293658 -6.43161721e-05   0.000167293658 -6.43161724e-05      0.289210702     0.939447175
12.66336             0.299236618     0.936167111   0.000167506743 -6.44760973e-05   0.000167506742 -6.44760976e-05      0.289568584     0.939325802
12.663388            0.299596811      0.93604058   0.000167720126 -6.46364135e-05   0.000167720126 -6.46364137e-05      0.289926658     0.939204206
12.663416            0.299957197     0.935913818   0.000167933809 -6.47971216e-05   0.000167933808 -6.47971219e-05      0.290284925     0.939082384
12.663444            0.300317775     0.935786825   0.000168147791 -6.49582226e-05   0.000168147791 -6.49582229e-05      0.290643383     0.938960337
12.663472            0.300678545     0.935659601   0.000168362073 -6.51197177e-05   0.000168362073  -6.5119718e-05      0.291002034     0.938838065
12.6635              0.301039509     0.935532145   0.000168576655 -6.52816078e-05   0.000168576655 -6.52816081e-05      0.291360878     0.938715567
12.663528            0.301400665     0.935404456   0.000168791539 -6.54438939e-05   0.000168791539 -6.54438942e-05      0.291719914     0.938592843
12.663556            0.301762013     0.935276535   0.000169006723 -6.56065771e-05   0.000169006723 -6.56065774e-05      0.292079142     0.938469892
12.663584            0.302123555     0.935148381   0.000169222209 -6.57696584e-05   0.000169222209 -6.57696587e-05      0.292438564     0.938346714
12.663612             0.30248529     0.935019994   0.000169437997 -6.59331388e-05   0.000169437997 -6.59331391e-05      0.292798178     0.938223308
12.66364             0.302847218     0.934891372   0.000169654088 -6.60970193e-05   0.000169654088 -6.60970196e-05      0.293157986     0.938099675
12.663668             0.30320934     0.934762517   0.000169870481 -6.62613011e-05   0.000169870481 -6.62613014e-05      0.293517986     0.937975814
12.663696            0.303571655     0.934633426   0.000170087177 -6.64259851e-05   0.000170087177 -6.64259854e-05       0.29387818     0.937851724
12.663724            0.303934163     0.934504101   0.000170304177 -6.65910724e-05   0.000170304177 -6.65910727e-05      0.294238568     0.937727406
12.663752            0.304296866     0.934374541   0.000170521481  -6.6756564e-05   0.000170521481 -6.67565643e-05      0.294599149     0.937602858
12.66378             0.304659762     0.934244745   0.000170739089  -6.6922461e-05   0.000170739089 -6.69224613e-05      0.294959924      0.93747808
12.663808            0.305022852     0.934114713   0.000170957002 -6.70887644e-05   0.000170957002 -6.70887647e-05      0.295320892     0.937353073
12.663836            0.305386137     0.933984444    0.00017117522 -6.72554754e-05    0.00017117522 -6.72554757e-05      0.295682055     0.937227835
12.663864            0.305749615     0.933853938   0.000171393744 -6.74225949e-05   0.000171393743 -6.74225951e-05      0.296043411     0.937102366
12.663892            0.306113288     0.933723195   0.000171612573 -6.75901239e-05   0.000171612573 -6.75901242e-05      0.296404962     0.936976666
12.66392             0.306477156     0.933592215   0.000171831709 -6.77580637e-05   0.000171831709  -6.7758064e-05      0.296766707     0.936850735
12.663948            0.306841218     0.933460996   0.000172051151 -6.79264152e-05   0.000172051151 -6.79264155e-05      0.297128647     0.936724572
12.663976            0.307205474     0.933329539   0.000172270901 -6.80951796e-05   0.000172270901 -6.80951799e-05      0.297490781     0.936598176
12.664004            0.307569926     0.933197843   0.000172490958 -6.82643578e-05   0.000172490958 -6.82643581e-05       0.29785311     0.936471548
12.664032            0.307934573     0.933065908   0.000172711323  -6.8433951e-05   0.000172711323 -6.84339513e-05      0.298215633     0.936344687
12.66406             0.308299414     0.932933733   0.000172931997 -6.86039602e-05   0.000172931997 -6.86039605e-05      0.298578352     0.936217593
12.664088            0.308664451     0.932801319   0.000173152979 -6.87743866e-05   0.000173152979 -6.87743869e-05      0.298941265     0.936090264
12.664116            0.309029683     0.932668663    0.00017337427 -6.89452311e-05    0.00017337427 -6.89452314e-05      0.299304374     0.935962702
12.664144            0.309395111     0.932535768   0.000173595871  -6.9116495e-05   0.000173595871 -6.91164953e-05      0.299667679     0.935834904
12.664172            0.309760734      0.93240263   0.000173817782 -6.92881793e-05   0.000173817781 -6.92881796e-05      0.300031178     0.935706872
12.6642              0.310126553     0.932269252   0.000174040003  -6.9460285e-05   0.000174040002 -6.94602853e-05      0.300394874     0.935578605
12.664228            0.310492568     0.932135631   0.000174262534 -6.96328134e-05   0.000174262534 -6.96328137e-05      0.300758764     0.935450102
12.664256            0.310858779     0.932001768   0.000174485377 -6.98057654e-05   0.000174485377 -6.98057657e-05      0.301122851     0.935321362
12.664284            0.311225186     0.931867662   0.000174708531 -6.99791422e-05   0.000174708531 -6.99791425e-05      0.301487134     0.935192386
12.664312            0.311591789     0.931733313   0.000174931998 -7.01529449e-05   0.000174931997 -7.01529452e-05      0.301851613     0.935063174
12.66434             0.311958588      0.93159872   0.000175155776 -7.03271747e-05   0.000175155776 -7.03271749e-05      0.302216288     0.934933723
12.664368            0.312325584     0.931463883   0.000175379867 -7.05018325e-05   0.000175379867 -7.05018328e-05      0.302581159     0.934804036
12.664396            0.312692776     0.931328802   0.000175604272 -7.06769196e-05   0.000175604271 -7.06769198e-05      0.302946227      0.93467411
12.664424            0.313060165     0.931193476   0.000175828989  -7.0852437e-05   0.000175828989 -7.08524373e-05      0.303311492     0.934543946
12.664452            0.313427751     0.931057905   0.000176054021 -7.10283859e-05   0.000176054021 -7.10283862e-05      0.303676953     0.934413542
12.66448             0.313795533     0.930922089   0.000176279367 -7.12047674e-05   0.000176279367 -7.12047677e-05      0.304042611       0.9342829
12.664508            0.314163513     0.930786026   0.000176505028 -7.13815826e-05   0.000176505027 -7.13815829e-05      0.304408466     0.934152018
12.664536             0.31453169     0.930649717   0.000176731003 -7.15588327e-05   0.000176731003  -7.1558833e-05      0.304774518     0.934020896
12.664564            0.314900064     0.930513161   0.000176957295 -7.17365188e-05   0.000176957295 -7.17365191e-05      0.305140767     0.933889533
12.664592            0.315268636     0.930376358   0.000177183902  -7.1914642e-05   0.000177183902 -7.19146423e-05      0.305507214      0.93375793
12.66462             0.315637405     0.930239307   0.000177410825 -7.20932035e-05   0.000177410825 -7.20932037e-05      0.305873858     0.933626085
12.664648            0.316006372     0.930102008   0.000177638066 -7.22722044e-05   0.000177638065 -7.22722046e-05      0.306240699     0.933493998
12.664676            0.316375537      0.92996446   0.000177865623 -7.24516458e-05   0.000177865623 -7.24516461e-05      0.306607739      0.93336167
12.664704            0.316744899     0.929826664   0.000178093498  -7.2631529e-05   0.000178093497 -7.26315293e-05      0.306974976     0.933229099
12.664732             0.31711446     0.929688619    0.00017832169  -7.2811855e-05    0.00017832169 -7.28118553e-05      0.307342411     0.933096285
12.66476             0.317484218     0.929550323   0.000178550201 -7.29926251e-05   0.000178550201 -7.29926254e-05      0.307710044     0.932963229
12.664788            0.317854175     0.929411778   0.000178779031 -7.31738404e-05   0.000178779031 -7.31738406e-05      0.308077876     0.932829928
12.664816             0.31822433     0.929272982    0.00017900818 -7.33555019e-05    0.00017900818 -7.33555022e-05      0.308445906     0.932696383
12.664844            0.318594684     0.929133935   0.000179237648 -7.35376111e-05   0.000179237648 -7.35376113e-05      0.308814134     0.932562594
12.664872            0.318965237     0.928994637   0.000179467436 -7.37201689e-05   0.000179467436 -7.37201691e-05      0.309182561      0.93242856
12.6649              0.319335988     0.928855087   0.000179697545 -7.39031765e-05   0.000179697545 -7.39031768e-05      0.309551186     0.932294281
12.664928            0.319706938     0.928715285   0.000179927974 -7.40866352e-05   0.000179927974 -7.40866355e-05      0.309920011     0.932159756
12.664956            0.320078087      0.92857523   0.000180158724 -7.42705461e-05   0.000180158724 -7.42705464e-05      0.310289034     0.932024985
12.664984            0.320449435     0.928434922   0.000180389796 -7.44549104e-05   0.000180389796 -7.44549106e-05      0.310658257     0.931889967
12.665012            0.320820983     0.928294361    0.00018062119 -7.46397292e-05    0.00018062119 -7.46397295e-05      0.311027678     0.931754703
12.66504              0.32119273     0.928153546   0.000180852906 -7.48250038e-05   0.000180852906 -7.48250041e-05      0.311397299     0.931619191
12.665068            0.321564676     0.928012477   0.000181084945 -7.50107354e-05   0.000181084945 -7.50107357e-05       0.31176712     0.931483432
12.665096            0.321936822     0.927871153   0.000181317307 -7.51969252e-05   0.000181317307 -7.51969255e-05       0.31213714     0.931347424
12.665124            0.322309167     0.927729573   0.000181549992 -7.53835743e-05   0.000181549992 -7.53835746e-05       0.31250736     0.931211168
12.665152            0.322681713     0.927587738   0.000181783002 -7.55706839e-05   0.000181783001 -7.55706842e-05       0.31287778     0.931074663
12.66518             0.323054458     0.927445648   0.000182016335 -7.57582554e-05   0.000182016335 -7.57582556e-05      0.313248399     0.930937908
12.665208            0.323427404       0.9273033   0.000182249994 -7.59462897e-05   0.000182249993   -7.594629e-05      0.313619219     0.930800904
12.665236            0.323800549     0.927160696   0.000182483977 -7.61347883e-05   0.000182483977 -7.61347886e-05      0.313990239     0.930663649
12.665264            0.324173895     0.927017835   0.000182718286 -7.63237523e-05   0.000182718286 -7.63237526e-05      0.314361459     0.930526144
12.665292            0.324547442     0.926874716   0.000182952921 -7.65131829e-05   0.000182952921 -7.65131832e-05       0.31473288     0.930388388
12.66532             0.324921189     0.926731339   0.000183187882 -7.67030813e-05   0.000183187882 -7.67030816e-05      0.315104501      0.93025038
12.665348            0.325295137     0.926587703    0.00018342317 -7.68934488e-05    0.00018342317 -7.68934491e-05      0.315476323      0.93011212
12.665376            0.325669285     0.926443808   0.000183658786 -7.70842866e-05   0.000183658785 -7.70842869e-05      0.315848346     0.929973609
12.665404            0.326043635     0.926299654   0.000183894728  -7.7275596e-05   0.000183894728 -7.72755962e-05       0.31622057     0.929834844