! TOUCHSTONE file generated by CST MICROWAVE STUDIO
! Date and time: Wed Jul 31 16:59:54 2024
! Project name: WaveGuide_BPF-Ver4.1_U-shape_Ku_T3_C4_CWA_2.cst
! Parameters = {cavity_h=16; cavity_l0=10; cavity_l1=15.2193; cavity_l2=16.8415; cavity_l3=17.0829; cavity_l4=17.3085; cavity_l5=17.1508; cavity_l6=17.6099; cavity_r=2.5; cavity_screw_l=0.5; cavity_screw_r=1.5; cavity_w=8; iris_h00=0; iris_h01=8.8205; iris_h112=0; iris_h12=5.5876; iris_h211=3.6678; iris_h23=5.2008; iris_h310=3.977; iris_h34=5.0876; iris_h45=4.9193; iris_h49=4.62; iris_h56=4.8084; iris_h58=4.4363; iris_h67=6.5659; iris_rx=0.1; iris_screw_l=0.5; iris_screw_r=1.5; iris_shift00=0; iris_shift112=0; iris_shift211=3.5; iris_shift310=0; iris_shift49=0; iris_shift58=3.5; iris_shift67=3.5; iris_tx=4.5; iris_tz=4.5; iris_w00=0; iris_w112=0; iris_w211=4; iris_w310=3.977; iris_w49=4.62; iris_w58=4; iris_w67=4; mesh_cavity=5; mesh_iris=7; mesh_screw=7; order=12; reset_all=0; sigma=4.8e+07}
! Header version: 2018
! Port assignment regex: !\s*Touchstone port\s*([0-9]+)\s*=\s*(CST MWS port|CST DS port)\s*([0-9]+|Zmin|Zmax)\s*\(\"(.*)\"\)(\s*mode\s*([0-9]+))?.*
! Touchstone port assignment:
! Touchstone port 1 = CST MWS port 1 ("")
! Touchstone port 2 = CST MWS port 2 ("")
# GHz S RI R 50
12.66                0.388948141     0.898108581   0.000242864939 -0.000126394503   0.000242864939 -0.000126394503      0.391320022     0.897169003
12.660028            0.389382382     0.897903127   0.000243186577 -0.000126720659   0.000243186577  -0.00012672066      0.391752383     0.896963076
12.660056             0.38981689     0.897697278   0.000243508639 -0.000127047674   0.000243508639 -0.000127047674      0.392184991     0.896756763
12.660084            0.390251652     0.897491038   0.000243831127 -0.000127375548   0.000243831127 -0.000127375548      0.392617841     0.896550065
12.660112            0.390686655     0.897284413   0.000244154043 -0.000127704282   0.000244154043 -0.000127704282      0.393050928     0.896342985
12.66014             0.391121887     0.897077408   0.000244477389 -0.000128033876    0.00024447739 -0.000128033876      0.393484247     0.896135522
12.660168            0.391557346     0.896870021   0.000244801168 -0.000128364332   0.000244801168 -0.000128364333      0.393917798     0.895927677
12.660196            0.391993043     0.896662248   0.000245125376 -0.000128695656   0.000245125376 -0.000128695656      0.394351585     0.895719448
12.660224            0.392428977     0.896454089   0.000245450014 -0.000129027847   0.000245450015 -0.000129027848      0.394785608     0.895510833
12.660252            0.392865147     0.896245542   0.000245775084 -0.000129360911   0.000245775084 -0.000129360911      0.395219866     0.895301833
12.66028             0.393301555     0.896036608   0.000246100584 -0.000129694847   0.000246100585 -0.000129694848      0.395654361     0.895092446
12.660308            0.393738201     0.895827285   0.000246426516  -0.00013002966   0.000246426517  -0.00013002966      0.396089091     0.894882672
12.660336            0.394175084     0.895617574    0.00024675288 -0.000130365351    0.00024675288 -0.000130365351      0.396524057     0.894672509
12.660364            0.394612204     0.895407472   0.000247079676 -0.000130701923   0.000247079676 -0.000130701923       0.39695926     0.894461959
12.660392            0.395049562     0.895196979   0.000247406904 -0.000131039378   0.000247406904 -0.000131039379      0.397394699     0.894251019
12.66042             0.395487157     0.894986096   0.000247734565 -0.000131377719   0.000247734565  -0.00013137772      0.397830374     0.894039689
12.660448             0.39592499      0.89477482   0.000248062659 -0.000131716949   0.000248062659 -0.000131716949      0.398266285     0.893827968
12.660476            0.396363061     0.894563152   0.000248391186 -0.000132057069   0.000248391186 -0.000132057069      0.398702433     0.893615856
12.660504             0.39680137      0.89435109   0.000248720147 -0.000132398082   0.000248720147 -0.000132398082      0.399138817     0.893403352
12.660532            0.397239917     0.894138635   0.000249049542 -0.000132739991   0.000249049542 -0.000132739991      0.399575437     0.893190455
12.66056             0.397678702     0.893925784   0.000249379372 -0.000133082798   0.000249379372 -0.000133082798      0.400012295     0.892977164
12.660588            0.398117725     0.893712538   0.000249709635 -0.000133426506   0.000249709636 -0.000133426506      0.400449389     0.892763479
12.660616            0.398556985     0.893498896   0.000250040334 -0.000133771117   0.000250040334 -0.000133771117       0.40088672       0.8925494
12.660644            0.398996485     0.893284857   0.000250371468 -0.000134116633   0.000250371469 -0.000134116634      0.401324287     0.892334925
12.660672            0.399436222      0.89307042   0.000250703038 -0.000134463058   0.000250703038 -0.000134463059      0.401762092     0.892120053
12.6607              0.399876198     0.892855585   0.000251035044 -0.000134810394   0.000251035044 -0.000134810394      0.402200134     0.891904785
12.660728            0.400316412     0.892640351   0.000251367485 -0.000135158643   0.000251367485 -0.000135158643      0.402638412     0.891689118
12.660756            0.400756865     0.892424717   0.000251700363 -0.000135507808   0.000251700364 -0.000135507808      0.403076928     0.891473054
12.660784            0.401197556     0.892208683   0.000252033678 -0.000135857891   0.000252033678 -0.000135857891      0.403515681      0.89125659
12.660812            0.401638486     0.891992248    0.00025236743 -0.000136208895    0.00025236743 -0.000136208895      0.403954671     0.891039726
12.66084             0.402079655      0.89177541    0.00025270162 -0.000136560822    0.00025270162 -0.000136560823      0.404393899     0.890822462
12.660868            0.402521062      0.89155817   0.000253036247 -0.000136913676   0.000253036247 -0.000136913676      0.404833364     0.890604797
12.660896            0.402962708     0.891340527   0.000253371312 -0.000137267458   0.000253371312 -0.000137267458      0.405273067     0.890386729
12.660924            0.403404594      0.89112248   0.000253706815 -0.000137622171   0.000253706815 -0.000137622172      0.405713007     0.890168259
12.660952            0.403846718     0.890904028   0.000254042756 -0.000137977819   0.000254042757 -0.000137977819      0.406153184     0.889949385
12.66098             0.404289081      0.89068517   0.000254379137 -0.000138334402   0.000254379137 -0.000138334403        0.4065936     0.889730107
12.661008            0.404731683     0.890465906   0.000254715957 -0.000138691925   0.000254715957 -0.000138691926      0.407034253     0.889510425
12.661036            0.405174525     0.890246235   0.000255053216  -0.00013905039   0.000255053216  -0.00013905039      0.407475144     0.889290336
12.661064            0.405617605     0.890026157   0.000255390914 -0.000139409798   0.000255390915 -0.000139409799      0.407916273     0.889069842
12.661092            0.406060925      0.88980567   0.000255729053 -0.000139770154   0.000255729053 -0.000139770154      0.408357639      0.88884894
12.66112             0.406504485     0.889584774   0.000256067632 -0.000140131459   0.000256067632  -0.00014013146      0.408799244      0.88862763
12.661148            0.406948284     0.889363468   0.000256406652 -0.000140493716   0.000256406652 -0.000140493717      0.409241087     0.888405912
12.661176            0.407392322     0.889141751   0.000256746112 -0.000140856929   0.000256746112 -0.000140856929      0.409683168     0.888183785
12.661204              0.4078366     0.888919623   0.000257086013 -0.000141221098   0.000257086013 -0.000141221099      0.410125487     0.887961247
12.661232            0.408281117     0.888697083   0.000257426356 -0.000141586228   0.000257426356 -0.000141586229      0.410568045     0.887738299
12.66126             0.408725875      0.88847413    0.00025776714 -0.000141952321    0.00025776714 -0.000141952322       0.41101084     0.887514939
12.661288            0.409170871     0.888250764   0.000258108366  -0.00014231938   0.000258108366  -0.00014231938      0.411453875     0.887291168
12.661316            0.409616108     0.888026983   0.000258450035 -0.000142687406   0.000258450035 -0.000142687407      0.411897147     0.887066983
12.661344            0.410061585     0.887802787   0.000258792145 -0.000143056404   0.000258792145 -0.000143056404      0.412340658     0.886842384
12.661372            0.410507301     0.887578176   0.000259134699 -0.000143426375   0.000259134699 -0.000143426376      0.412784408     0.886617371
12.6614              0.410953258     0.887353147   0.000259477695 -0.000143797323   0.000259477695 -0.000143797323      0.413228396     0.886391943
12.661428            0.411399454     0.887127702   0.000259821135  -0.00014416925   0.000259821135  -0.00014416925      0.413672623     0.886166099
12.661456            0.411845891     0.886901838   0.000260165018 -0.000144542158   0.000260165018 -0.000144542159      0.414117089     0.885939838
12.661484            0.412292568     0.886675556   0.000260509344 -0.000144916052   0.000260509344 -0.000144916052      0.414561794      0.88571316
12.661512            0.412739485     0.886448854   0.000260854115 -0.000145290932   0.000260854115 -0.000145290933      0.415006737     0.885486064
12.66154             0.413186642     0.886221732    0.00026119933 -0.000145666803    0.00026119933 -0.000145666803       0.41545192     0.885258549
12.661568             0.41363404     0.885994188   0.000261544989 -0.000146043666   0.000261544989 -0.000146043667      0.415897341     0.885030614
12.661596            0.414081678     0.885766223   0.000261891093 -0.000146421525   0.000261891093 -0.000146421526      0.416343001     0.884802258
12.661624            0.414529556     0.885537835   0.000262237642 -0.000146800383   0.000262237642 -0.000146800384      0.416788901     0.884573482
12.661652            0.414977675     0.885309024   0.000262584636 -0.000147180242   0.000262584636 -0.000147180242       0.41723504     0.884344283
12.66168             0.415426035     0.885079789   0.000262932075 -0.000147561105   0.000262932075 -0.000147561105      0.417681417     0.884114662
12.661708            0.415874635     0.884850128    0.00026327996 -0.000147942974   0.000263279961 -0.000147942975      0.418128035     0.883884617
12.661736            0.416323475     0.884620043   0.000263628291 -0.000148325854   0.000263628292 -0.000148325854      0.418574891     0.883654148
12.661764            0.416772557      0.88438953   0.000263977069 -0.000148709745   0.000263977069 -0.000148709746      0.419021987     0.883423254
12.661792            0.417221879     0.884158591   0.000264326292 -0.000149094652   0.000264326292 -0.000149094653      0.419469322     0.883191935
12.66182             0.417671442     0.883927224   0.000264675962 -0.000149480578   0.000264675962 -0.000149480578      0.419916897     0.882960188
12.661848            0.418121246     0.883695427   0.000265026079 -0.000149867524   0.000265026079 -0.000149867524      0.420364711     0.882728015
12.661876            0.418571291     0.883463202   0.000265376643 -0.000150255494   0.000265376643 -0.000150255494      0.420812765     0.882495413
12.661904            0.419021577     0.883230546   0.000265727654  -0.00015064449   0.000265727654 -0.000150644491      0.421261058     0.882262383
12.661932            0.419472103     0.882997459   0.000266079113 -0.000151034517   0.000266079113 -0.000151034517      0.421709591     0.882028922
12.66196             0.419922871      0.88276394   0.000266431019 -0.000151425575   0.000266431019 -0.000151425576      0.422158364     0.881795032
12.661988             0.42037388     0.882529989   0.000266783373 -0.000151817669   0.000266783373  -0.00015181767      0.422607376      0.88156071
12.662016             0.42082513     0.882295604   0.000267136175 -0.000152210801   0.000267136175 -0.000152210802      0.423056629     0.881325956
12.662044            0.421276622     0.882060785   0.000267489426 -0.000152604975   0.000267489426 -0.000152604975      0.423506121      0.88109077
12.662072            0.421728354     0.881825531   0.000267843125 -0.000153000192   0.000267843125 -0.000153000193      0.423955853      0.88085515
12.6621              0.422180328     0.881589841   0.000268197273 -0.000153396457   0.000268197273 -0.000153396457      0.424405825     0.880619096
12.662128            0.422632543     0.881353715   0.000268551869 -0.000153793771    0.00026855187 -0.000153793772      0.424856037     0.880382607
12.662156               0.423085     0.881117151   0.000268906915 -0.000154192138   0.000268906915 -0.000154192139       0.42530649     0.880145681
12.662184            0.423537698      0.88088015    0.00026926241 -0.000154591561   0.000269262411 -0.000154591562      0.425757182     0.879908319
12.662212            0.423990637     0.880642709   0.000269618355 -0.000154992043   0.000269618355 -0.000154992043      0.426208114      0.87967052
12.66224             0.424443818     0.880404829    0.00026997475 -0.000155393586    0.00026997475 -0.000155393587      0.426659287     0.879432283
12.662268            0.424897241     0.880166508   0.000270331594 -0.000155796195   0.000270331594 -0.000155796195        0.4271107     0.879193606
12.662296            0.425350905     0.879927746   0.000270688888  -0.00015619987   0.000270688888 -0.000156199871      0.427562353      0.87895449
12.662324            0.425804811     0.879688541   0.000271046633 -0.000156604617   0.000271046633 -0.000156604617      0.428014246     0.878714932
12.662352            0.426258958     0.879448894   0.000271404828 -0.000157010437   0.000271404828 -0.000157010438       0.42846638     0.878474934
12.66238             0.426713348     0.879208804   0.000271763473 -0.000157417334   0.000271763473 -0.000157417335      0.428918754     0.878234493
12.662408            0.427167979     0.878968268    0.00027212257 -0.000157825311    0.00027212257 -0.000157825311      0.429371369     0.877993609
12.662436            0.427622851     0.878727288   0.000272482117  -0.00015823437   0.000272482117  -0.00015823437      0.429824224     0.877752282
12.662464            0.428077966     0.878485861   0.000272842116 -0.000158644515   0.000272842116 -0.000158644515      0.430277319      0.87751051
12.662492            0.428533322     0.878243987   0.000273202565 -0.000159055749   0.000273202566 -0.000159055749      0.430730656     0.877268292
12.66252             0.428988921     0.878001666   0.000273563467 -0.000159468075   0.000273563467 -0.000159468075      0.431184232     0.877025628
12.662548            0.429444761     0.877758896    0.00027392482 -0.000159881495    0.00027392482 -0.000159881496       0.43163805     0.876782517
12.662576            0.429900844     0.877515676   0.000274286624 -0.000160296014   0.000274286624 -0.000160296014      0.432092108     0.876538958
12.662604            0.430357168     0.877272007   0.000274648881 -0.000160711634   0.000274648881 -0.000160711634      0.432546406     0.876294951
12.662632            0.430813734     0.877027886   0.000275011589 -0.000161128357    0.00027501159 -0.000161128358      0.433000946     0.876050494
12.66266             0.431270543     0.876783314    0.00027537475 -0.000161546189    0.00027537475 -0.000161546189      0.433455726     0.875805586
12.662688            0.431727594     0.876538289   0.000275738364  -0.00016196513   0.000275738364 -0.000161965131      0.433910747     0.875560228
12.662716            0.432184886      0.87629281   0.000276102429 -0.000162385185    0.00027610243 -0.000162385186      0.434366009     0.875314417
12.662744            0.432642421     0.876046877   0.000276466948 -0.000162806357   0.000276466948 -0.000162806357      0.434821512     0.875068154
12.662772            0.433100199      0.87580049   0.000276831919 -0.000163228648   0.000276831919 -0.000163228648      0.435277256     0.874821437
12.6628              0.433558218     0.875553646   0.000277197343 -0.000163652062   0.000277197344 -0.000163652063       0.43573324     0.874574266
12.662828             0.43401648     0.875306345   0.000277563221 -0.000164076602   0.000277563221 -0.000164076603      0.436189466      0.87432664
12.662856            0.434474984     0.875058587   0.000277929551 -0.000164502272   0.000277929551 -0.000164502272      0.436645932     0.874078557
12.662884             0.43493373      0.87481037   0.000278296335 -0.000164929074   0.000278296335 -0.000164929074       0.43710264     0.873830017
12.662912            0.435392719     0.874561694   0.000278663572 -0.000165357011   0.000278663572 -0.000165357011      0.437559589      0.87358102
12.66294              0.43585195     0.874312558   0.000279031263 -0.000165786087   0.000279031263 -0.000165786088      0.438016778     0.873331564
12.662968            0.436311424     0.874062961   0.000279399408 -0.000166216305   0.000279399408 -0.000166216306      0.438474209     0.873081649
12.662996             0.43677114     0.873812903   0.000279768006 -0.000166647668   0.000279768006 -0.000166647669      0.438931881     0.872831274
12.663024            0.437231098     0.873562381   0.000280137058  -0.00016708018   0.000280137058  -0.00016708018      0.439389794     0.872580437
12.663052            0.437691299     0.873311396   0.000280506565 -0.000167513843   0.000280506565 -0.000167513843      0.439847949     0.872329139
12.66308             0.438151743     0.873059947   0.000280876525 -0.000167948661   0.000280876525 -0.000167948661      0.440306344     0.872077378
12.663108            0.438612429     0.872808033   0.000281246939 -0.000168384637    0.00028124694 -0.000168384637      0.440764981     0.871825153
12.663136            0.439073357     0.872555653   0.000281617808 -0.000168821774   0.000281617809 -0.000168821774      0.441223859     0.871572464
12.663164            0.439534528     0.872302805   0.000281989132 -0.000169260076   0.000281989132 -0.000169260076      0.441682979     0.871319309
12.663192            0.439995942     0.872049491   0.000282360909 -0.000169699545    0.00028236091 -0.000169699546      0.442142339     0.871065688
12.66322             0.440457599     0.871795707   0.000282733142 -0.000170140186   0.000282733142 -0.000170140187      0.442601941     0.870811601
12.663248            0.440919498     0.871541454   0.000283105829 -0.000170582002   0.000283105829 -0.000170582002      0.443061785     0.870557045
12.663276             0.44138164     0.871286731   0.000283478971 -0.000171024995   0.000283478971 -0.000171024995      0.443521869     0.870302021
12.663304            0.441844024     0.871031537   0.000283852567 -0.000171469169   0.000283852568 -0.000171469169      0.443982196     0.870046527
12.663332            0.442306651     0.870775871   0.000284226619 -0.000171914527   0.000284226619 -0.000171914527      0.444442763     0.869790563
12.66336             0.442769521     0.870519732   0.000284601126 -0.000172361073   0.000284601126 -0.000172361074      0.444903572     0.869534127
12.663388            0.443232634     0.870263119   0.000284976087  -0.00017280881   0.000284976087 -0.000172808811      0.445364623      0.86927722
12.663416            0.443695989     0.870006031   0.000285351504 -0.000173257742   0.000285351504 -0.000173257742      0.445825914     0.869019839
12.663444            0.444159587     0.869748468   0.000285727376 -0.000173707871   0.000285727376 -0.000173707871      0.446287448     0.868761984
12.663472            0.444623428     0.869490429   0.000286103703 -0.000174159201   0.000286103703 -0.000174159202      0.446749223     0.868503655
12.6635              0.445087512     0.869231913   0.000286480485 -0.000174611736   0.000286480485 -0.000174611736      0.447211239      0.86824485
12.663528            0.445551838     0.868972918   0.000286857723 -0.000175065479   0.000286857723 -0.000175065479      0.447673497     0.867985569
12.663556            0.446016408     0.868713445   0.000287235416 -0.000175520433   0.000287235416 -0.000175520433      0.448135996      0.86772581
12.663584             0.44648122     0.868453492   0.000287613564 -0.000175976601   0.000287613564 -0.000175976602      0.448598737     0.867465574
12.663612            0.446946275     0.868193058   0.000287992168 -0.000176433988   0.000287992168 -0.000176433988       0.44906172     0.867204858
12.66364             0.447411573     0.867932143   0.000288371227 -0.000176892596   0.000288371227 -0.000176892597      0.449524944     0.866943662
12.663668            0.447877113     0.867670745   0.000288750742 -0.000177352429   0.000288750742  -0.00017735243       0.44998841     0.866681985
12.663696            0.448342897     0.867408863   0.000289130712 -0.000177813491   0.000289130713 -0.000177813492      0.450452117     0.866419826
12.663724            0.448808924     0.867146498   0.000289511138 -0.000178275785   0.000289511139 -0.000178275785      0.450916066     0.866157185
12.663752            0.449275193     0.866883647    0.00028989202 -0.000178739313    0.00028989202 -0.000178739314      0.451380256     0.865894061
12.66378             0.449741705     0.866620311   0.000290273357 -0.000179204081   0.000290273357 -0.000179204082      0.451844689     0.865630452
12.663808             0.45020846     0.866356487    0.00029065515 -0.000179670091    0.00029065515 -0.000179670091      0.452309362     0.865366357
12.663836            0.450675458     0.866092176   0.000291037398 -0.000180137347   0.000291037398 -0.000180137347      0.452774278     0.865101777
12.663864            0.451142699     0.865827376   0.000291420102 -0.000180605852   0.000291420102 -0.000180605852      0.453239435      0.86483671
12.663892            0.451610183     0.865562087   0.000291803262  -0.00018107561   0.000291803262  -0.00018107561      0.453704833     0.864571154
12.66392              0.45207791     0.865296307   0.000292186877 -0.000181546624   0.000292186877 -0.000181546624      0.454170474      0.86430511
12.663948             0.45254588     0.865030035   0.000292570947 -0.000182018898   0.000292570948 -0.000182018899      0.454636356     0.864038576
12.663976            0.453014092     0.864763272   0.000292955474 -0.000182492436   0.000292955474 -0.000182492436      0.455102479     0.863771551
12.664004            0.453482548     0.864496015   0.000293340456  -0.00018296724   0.000293340456 -0.000182967241      0.455568844     0.863504035
12.664032            0.453951246     0.864228264   0.000293725893 -0.000183443315   0.000293725893 -0.000183443316      0.456035451     0.863236027
12.66406             0.454420187     0.863960018   0.000294111786 -0.000183920665   0.000294111786 -0.000183920665        0.4565023     0.862967525
12.664088            0.454889371     0.863691276   0.000294498135 -0.000184399292   0.000294498135 -0.000184399292       0.45696939     0.862698529
12.664116            0.455358799     0.863422037   0.000294884939   -0.0001848792   0.000294884939   -0.0001848792      0.457436722     0.862429037
12.664144            0.455828469     0.863152301   0.000295272198 -0.000185360393   0.000295272198 -0.000185360394      0.457904295      0.86215905
12.664172            0.456298381     0.862882066   0.000295659913 -0.000185842875   0.000295659913 -0.000185842876       0.45837211     0.861888566
12.6642              0.456768537     0.862611332   0.000296048083 -0.000186326649   0.000296048083  -0.00018632665      0.458840167     0.861617583
12.664228            0.457238936     0.862340097   0.000296436708 -0.000186811719   0.000296436709  -0.00018681172      0.459308465     0.861346102
12.664256            0.457709577      0.86206836   0.000296825789 -0.000187298089   0.000296825789 -0.000187298089      0.459777005     0.861074122
12.664284            0.458180462     0.861796121   0.000297215325 -0.000187785761   0.000297215325 -0.000187785762      0.460245786      0.86080164
12.664312            0.458651589     0.861523379   0.000297605316 -0.000188274741   0.000297605316 -0.000188274741      0.460714809     0.860528657
12.66434             0.459122959     0.861250133   0.000297995762  -0.00018876503   0.000297995762 -0.000188765031      0.461184074     0.860255172
12.664368            0.459594572     0.860976382   0.000298386663 -0.000189256635   0.000298386663 -0.000189256635       0.46165358     0.859981183
12.664396            0.460066427     0.860702125   0.000298778019 -0.000189749557   0.000298778019 -0.000189749557      0.462123328     0.859706689
12.664424            0.460538526      0.86042736   0.000299169829   -0.0001902438   0.000299169829 -0.000190243801      0.462593318     0.859431691
12.664452            0.461010867     0.860152088   0.000299562095 -0.000190739369   0.000299562095  -0.00019073937      0.463063549     0.859156186
12.66448             0.461483451     0.859876307   0.000299954815 -0.000191236267   0.000299954815 -0.000191236268      0.463534021     0.858880174
12.664508            0.461956278     0.859600017   0.000300347989 -0.000191734498    0.00030034799 -0.000191734499      0.464004735     0.858603654
12.664536            0.462429347     0.859323215   0.000300741618 -0.000192234066   0.000300741619 -0.000192234067      0.464475691     0.858326626
12.664564             0.46290266     0.859045902   0.000301135702 -0.000192734974   0.000301135702 -0.000192734975      0.464946888     0.858049087
12.664592            0.463376214     0.858768076   0.000301530239 -0.000193237226    0.00030153024 -0.000193237227      0.465418326     0.857771037
12.66462             0.463850012     0.858489737   0.000301925231 -0.000193740826   0.000301925231 -0.000193740827      0.465890006     0.857492475
12.664648            0.464324052     0.858210883   0.000302320677 -0.000194245778   0.000302320677 -0.000194245779      0.466361927     0.857213401
12.664676            0.464798335     0.857931514   0.000302716577 -0.000194752085   0.000302716577 -0.000194752086       0.46683409     0.856933813
12.664704            0.465272861     0.857651629    0.00030311293 -0.000195259752    0.00030311293 -0.000195259753      0.467306494      0.85665371
12.664732            0.465747629     0.857371226   0.000303509737 -0.000195768782   0.000303509737 -0.000195768783       0.46777914     0.856373092
12.66476              0.46622264     0.857090305   0.000303906997 -0.000196279179   0.000303906998  -0.00019627918      0.468252027     0.856091957
12.664788            0.466697893     0.856808864   0.000304304711 -0.000196790947   0.000304304711 -0.000196790948      0.468725155     0.855810304
12.664816            0.467173389     0.856526903   0.000304702878  -0.00019730409   0.000304702878  -0.00019730409      0.469198524     0.855528133
12.664844            0.467649127     0.856244422   0.000305101498 -0.000197818611   0.000305101498 -0.000197818612      0.469672135     0.855245443
12.664872            0.468125108     0.855961418   0.000305500571 -0.000198334515   0.000305500571 -0.000198334516      0.470145987     0.854962232
12.6649              0.468601331      0.85567789   0.000305900097 -0.000198851806   0.000305900097 -0.000198851806       0.47062008       0.8546785
12.664928            0.469077797     0.855393839   0.000306300075 -0.000199370487   0.000306300075 -0.000199370487      0.471094415     0.854394245
12.664956            0.469554505     0.855109263   0.000306700506 -0.000199890562   0.000306700506 -0.000199890562       0.47156899     0.854109468
12.664984            0.470031455     0.854824161   0.000307101388 -0.000200412035   0.000307101389 -0.000200412036      0.472043807     0.853824165
12.665012            0.470508648     0.854538532   0.000307502723 -0.000200934911   0.000307502723 -0.000200934911      0.472518865     0.853538338
12.66504             0.470986083     0.854252374    0.00030790451 -0.000201459193    0.00030790451 -0.000201459193      0.472994164     0.853251985
12.665068             0.47146376     0.853965688   0.000308306748 -0.000201984884   0.000308306748 -0.000201984885      0.473469704     0.852965104
12.665096            0.471941679     0.853678472   0.000308709438  -0.00020251199   0.000308709438 -0.000202511991      0.473945485     0.852677695
12.665124            0.472419841     0.853390725   0.000309112579 -0.000203040514   0.000309112579 -0.000203040515      0.474421507     0.852389757
12.665152            0.472898244     0.853102447   0.000309516171  -0.00020357046   0.000309516171 -0.000203570461       0.47489777     0.852101289
12.66518              0.47337689     0.852813635   0.000309920214 -0.000204101833   0.000309920214 -0.000204101833      0.475374274      0.85181229
12.665208            0.473855778     0.852524289   0.000310324707 -0.000204634635   0.000310324707 -0.000204634636      0.475851019     0.851522759
12.665236            0.474334908     0.852234409   0.000310729651 -0.000205168872   0.000310729651 -0.000205168872      0.476328004     0.851232694
12.665264             0.47481428     0.851943993   0.000311135045 -0.000205704546   0.000311135045 -0.000205704547       0.47680523     0.850942096
12.665292            0.475293894      0.85165304   0.000311540889 -0.000206241663   0.000311540889 -0.000206241664      0.477282697     0.850650962
12.66532             0.475773749     0.851361549   0.000311947182 -0.000206780227   0.000311947182 -0.000206780227      0.477760405     0.850359293
12.665348            0.476253847     0.851069519   0.000312353925 -0.000207320241   0.000312353925 -0.000207320241      0.478238354     0.850067086
12.665376            0.476734186      0.85077695   0.000312761117 -0.000207861709   0.000312761117  -0.00020786171      0.478716543     0.849774342
12.665404            0.477214768     0.850483839   0.000313168758 -0.000208404636   0.000313168758 -0.000208404637      0.479194972     0.849481058