! TOUCHSTONE file generated by CST MICROWAVE STUDIO
! Date and time: Wed Jul 31 17:43:50 2024
! Project name: WaveGuide_BPF-Ver4.1_U-shape_Ku_T3_C4_CWA_2.cst
! Parameters = {cavity_h=16; cavity_l0=10; cavity_l1=15.2045; cavity_l2=16.8088; cavity_l3=17.0663; cavity_l4=17.2249; cavity_l5=17.1023; cavity_l6=17.5613; cavity_r=2.5; cavity_screw_l=0.5; cavity_screw_r=1.5; cavity_w=8; iris_h00=0; iris_h01=8.8021; iris_h112=0; iris_h12=5.5863; iris_h211=3.6536; iris_h23=5.2003; iris_h310=3.9618; iris_h34=5.0924; iris_h45=4.9304; iris_h49=4.6251; iris_h56=4.8099; iris_h58=4.4334; iris_h67=6.5648; iris_rx=0.1; iris_screw_l=0.5; iris_screw_r=1.5; iris_shift00=0; iris_shift112=0; iris_shift211=3.5; iris_shift310=0; iris_shift49=0; iris_shift58=3.5; iris_shift67=3.5; iris_tx=4.5; iris_tz=4.5; iris_w00=0; iris_w112=0; iris_w211=4; iris_w310=3.9618; iris_w49=4.6251; iris_w58=4; iris_w67=4; mesh_cavity=5; mesh_iris=7; mesh_screw=7; order=12; reset_all=0; sigma=4.8e+07}
! Header version: 2018
! Port assignment regex: !\s*Touchstone port\s*([0-9]+)\s*=\s*(CST MWS port|CST DS port)\s*([0-9]+|Zmin|Zmax)\s*\(\"(.*)\"\)(\s*mode\s*([0-9]+))?.*
! Touchstone port assignment:
! Touchstone port 1 = CST MWS port 1 ("")
! Touchstone port 2 = CST MWS port 2 ("")
# GHz S RI R 50
12.66                0.259463885     0.948259115   0.000149364895  -5.1282759e-05   0.000149364895 -5.12827591e-05      0.261545585     0.947705623
12.660028            0.259821983     0.948150195   0.000149555809 -5.14152269e-05   0.000149555809  -5.1415227e-05      0.261903737     0.947595855
12.660056            0.260180276      0.94804106   0.000149746997 -5.15480213e-05   0.000149746997 -5.15480214e-05       0.26226206     0.947485879
12.660084            0.260538764     0.947931712   0.000149938458 -5.16811438e-05   0.000149938459 -5.16811438e-05      0.262620565     0.947375691
12.660112            0.260897449     0.947822149   0.000150130193 -5.18145961e-05   0.000150130194 -5.18145962e-05      0.262979263     0.947265289
12.66014             0.261256331      0.94771237   0.000150322201   -5.194838e-05   0.000150322202 -5.19483801e-05      0.263338165     0.947154669
12.660168            0.261615412     0.947602375   0.000150514483 -5.20824964e-05   0.000150514483 -5.20824965e-05      0.263697271      0.94704383
12.660196            0.261974691     0.947492164   0.000150707039 -5.22169456e-05   0.000150707039 -5.22169457e-05      0.264056574     0.946932775
12.660224            0.262334167     0.947381737   0.000150899869 -5.23517284e-05    0.00015089987 -5.23517285e-05      0.264416075     0.946821503
12.660252            0.262693841     0.947271093   0.000151092975 -5.24868457e-05   0.000151092975 -5.24868458e-05      0.264775773     0.946710013
12.66028             0.263053712     0.947160232   0.000151286356 -5.26222984e-05   0.000151286357 -5.26222985e-05      0.265135668     0.946598306
12.660308            0.263413782     0.947049153   0.000151480013 -5.27580874e-05   0.000151480014 -5.27580875e-05      0.265495761      0.94648638
12.660336             0.26377405     0.946937857   0.000151673947 -5.28942135e-05   0.000151673947 -5.28942136e-05      0.265856052     0.946374236
12.660364            0.264134516     0.946826342   0.000151868156 -5.30306777e-05   0.000151868157 -5.30306778e-05      0.266216541     0.946261873
12.660392            0.264495181     0.946714609   0.000152062643 -5.31674808e-05   0.000152062644 -5.31674809e-05      0.266577227     0.946149291
12.66042             0.264856044     0.946602656   0.000152257408 -5.33046237e-05   0.000152257408 -5.33046238e-05      0.266938112      0.94603649
12.660448            0.265217106     0.946490485    0.00015245245 -5.34421073e-05    0.00015245245 -5.34421074e-05      0.267299195     0.945923468
12.660476            0.265578366     0.946378094    0.00015264777 -5.35799325e-05   0.000152647771 -5.35799326e-05      0.267660477     0.945810227
12.660504            0.265939826     0.946265483   0.000152843369 -5.37181002e-05    0.00015284337 -5.37181003e-05      0.268021956     0.945696764
12.660532            0.266301484     0.946152651   0.000153039247 -5.38566114e-05   0.000153039247 -5.38566115e-05      0.268383635     0.945583081
12.66056             0.266663342     0.946039599   0.000153235404 -5.39954668e-05   0.000153235405 -5.39954669e-05      0.268745512     0.945469176
12.660588            0.267025399     0.945926326   0.000153431841 -5.41346675e-05   0.000153431842 -5.41346676e-05      0.269107589      0.94535505
12.660616            0.267387656     0.945812831   0.000153628559 -5.42742143e-05   0.000153628559 -5.42742143e-05      0.269469864     0.945240701
12.660644            0.267750112     0.945699114   0.000153825556 -5.44141081e-05   0.000153825557 -5.44141082e-05      0.269832338      0.94512613
12.660672            0.268112768     0.945585175   0.000154022835 -5.45543498e-05   0.000154022835 -5.45543499e-05      0.270195012     0.945011336
12.6607              0.268475624     0.945471014   0.000154220395 -5.46949404e-05   0.000154220395 -5.46949405e-05      0.270557885     0.944896319
12.660728            0.268838679      0.94535663   0.000154418236 -5.48358808e-05   0.000154418237 -5.48358809e-05      0.270920958     0.944781079
12.660756            0.269201935     0.945242022    0.00015461636  -5.4977172e-05    0.00015461636  -5.4977172e-05       0.27128423     0.944665614
12.660784            0.269565391     0.945127191   0.000154814766 -5.51188147e-05   0.000154814766 -5.51188148e-05      0.271647702     0.944549925
12.660812            0.269929048     0.945012135   0.000155013455   -5.526081e-05   0.000155013455 -5.52608101e-05      0.272011374     0.944434012
12.66084             0.270292904     0.944896856   0.000155212427 -5.54031587e-05   0.000155212428 -5.54031588e-05      0.272375246     0.944317873
12.660868            0.270656962     0.944781351   0.000155411683 -5.55458619e-05   0.000155411684  -5.5545862e-05      0.272739319     0.944201509
12.660896             0.27102122     0.944665622   0.000155611223 -5.56889205e-05   0.000155611224 -5.56889206e-05      0.273103591      0.94408492
12.660924             0.27138568     0.944549666   0.000155811048 -5.58323353e-05   0.000155811048 -5.58323354e-05      0.273468064     0.943968104
12.660952             0.27175034     0.944433485   0.000156011157 -5.59761073e-05   0.000156011157 -5.59761074e-05      0.273832738     0.943851061
12.66098             0.272115201     0.944317078   0.000156211552 -5.61202375e-05   0.000156211552 -5.61202376e-05      0.274197612     0.943733792
12.661008            0.272480264     0.944200444   0.000156412232 -5.62647269e-05   0.000156412232 -5.62647269e-05      0.274562688     0.943616295
12.661036            0.272845528     0.944083583   0.000156613198 -5.64095762e-05   0.000156613198 -5.64095763e-05      0.274927964     0.943498571
12.661064            0.273210994     0.943966495   0.000156814451 -5.65547866e-05   0.000156814451 -5.65547867e-05      0.275293441     0.943380619
12.661092            0.273576661     0.943849179    0.00015701599  -5.6700359e-05    0.00015701599 -5.67003591e-05       0.27565912     0.943262438
12.66112              0.27394253     0.943731634   0.000157217816 -5.68462943e-05   0.000157217817 -5.68462944e-05         0.276025     0.943144029
12.661148            0.274308601     0.943613861   0.000157419931 -5.69925934e-05   0.000157419931 -5.69925935e-05      0.276391081      0.94302539
12.661176            0.274674874      0.94349586   0.000157622333 -5.71392574e-05   0.000157622333 -5.71392575e-05      0.276757364     0.942906522
12.661204             0.27504135     0.943377629   0.000157825023 -5.72862872e-05   0.000157825024 -5.72862873e-05      0.277123849     0.942787424
12.661232            0.275408027     0.943259168   0.000158028003 -5.74336838e-05   0.000158028003 -5.74336839e-05      0.277490535     0.942668095
12.66126             0.275774907     0.943140477   0.000158231271 -5.75814481e-05   0.000158231272 -5.75814482e-05      0.277857424     0.942548536
12.661288             0.27614199     0.943021556   0.000158434829 -5.77295811e-05    0.00015843483 -5.77295812e-05      0.278224514     0.942428746
12.661316            0.276509276     0.942902404   0.000158638678 -5.78780838e-05   0.000158638678 -5.78780839e-05      0.278591807     0.942308724
12.661344            0.276876764     0.942783021   0.000158842816 -5.80269571e-05   0.000158842816 -5.80269572e-05      0.278959303     0.942188471
12.661372            0.277244455     0.942663406   0.000159047245 -5.81762021e-05   0.000159047246 -5.81762022e-05      0.279327001     0.942067985
12.6614               0.27761235     0.942543559   0.000159251966 -5.83258197e-05   0.000159251966 -5.83258198e-05      0.279694901     0.941947267
12.661428            0.277980447      0.94242348   0.000159456978  -5.8475811e-05   0.000159456978 -5.84758111e-05      0.280063004     0.941826315
12.661456            0.278348748     0.942303168   0.000159662282 -5.86261768e-05   0.000159662282 -5.86261769e-05      0.280431311     0.941705131
12.661484            0.278717253     0.942182623   0.000159867878 -5.87769182e-05   0.000159867878 -5.87769183e-05       0.28079982     0.941583712
12.661512            0.279085961     0.942061845   0.000160073767 -5.89280362e-05   0.000160073767 -5.89280363e-05      0.281168532      0.94146206
12.66154             0.279454873     0.941940832   0.000160279949 -5.90795318e-05    0.00016027995 -5.90795319e-05      0.281537448     0.941340172
12.661568            0.279823989     0.941819586   0.000160486425  -5.9231406e-05   0.000160486425 -5.92314061e-05      0.281906567      0.94121805
12.661596            0.280193308     0.941698104   0.000160693195 -5.93836597e-05   0.000160693195 -5.93836598e-05       0.28227589     0.941095693
12.661624            0.280562832     0.941576388   0.000160900259 -5.95362941e-05   0.000160900259 -5.95362942e-05      0.282645416       0.9409731
12.661652            0.280932561     0.941454436   0.000161107618   -5.968931e-05   0.000161107618 -5.96893101e-05      0.283015146     0.940850271
12.66168             0.281302493     0.941332248   0.000161315272 -5.98427086e-05   0.000161315273 -5.98427087e-05       0.28338508     0.940727205
12.661708            0.281672631     0.941209824   0.000161523222 -5.99964908e-05   0.000161523222 -5.99964909e-05      0.283755218     0.940603902
12.661736            0.282042972     0.941087164   0.000161731468 -6.01506576e-05   0.000161731468 -6.01506577e-05      0.284125561     0.940480362
12.661764            0.282413519     0.940964266    0.00016194001   -6.030521e-05    0.00016194001 -6.03052101e-05      0.284496107     0.940356585
12.661792            0.282784271     0.940841131   0.000162148848 -6.04601492e-05   0.000162148849 -6.04601493e-05      0.284866858     0.940232569
12.66182             0.283155227     0.940717758   0.000162357984 -6.06154761e-05   0.000162357985 -6.06154762e-05      0.285237814     0.940108315
12.661848            0.283526389     0.940594147   0.000162567418 -6.07711917e-05   0.000162567418 -6.07711918e-05      0.285608974     0.939983822
12.661876            0.283897757     0.940470297    0.00016277715  -6.0927297e-05    0.00016277715 -6.09272971e-05       0.28598034      0.93985909
12.661904            0.284269329     0.940346208   0.000162987179 -6.10837932e-05    0.00016298718 -6.10837933e-05       0.28635191     0.939734118
12.661932            0.284641108      0.94022188   0.000163197508 -6.12406812e-05   0.000163197508 -6.12406813e-05      0.286723685     0.939608906
12.66196             0.285013092     0.940097312   0.000163408136 -6.13979621e-05   0.000163408136 -6.13979622e-05      0.287095665     0.939483453
12.661988            0.285385281     0.939972503   0.000163619064  -6.1555637e-05   0.000163619064 -6.15556371e-05      0.287467851      0.93935776
12.662016            0.285757677     0.939847455   0.000163830291 -6.17137067e-05   0.000163830291 -6.17137068e-05      0.287840242     0.939231825
12.662044            0.286130279     0.939722165   0.000164041819 -6.18721726e-05   0.000164041819 -6.18721727e-05      0.288212839     0.939105649
12.662072            0.286503087     0.939596633   0.000164253648 -6.20310354e-05   0.000164253648 -6.20310355e-05      0.288585642     0.938979231
12.6621              0.286876102      0.93947086   0.000164465778 -6.21902964e-05   0.000164465778 -6.21902965e-05       0.28895865      0.93885257
12.662128            0.287249323     0.939344845   0.000164678209 -6.23499566e-05    0.00016467821 -6.23499567e-05      0.289331865     0.938725666
12.662156             0.28762275     0.939218587   0.000164890943 -6.25100171e-05   0.000164890943 -6.25100172e-05      0.289705285     0.938598519
12.662184            0.287996385     0.939092085   0.000165103979 -6.26704788e-05   0.000165103979 -6.26704789e-05      0.290078912     0.938471128
12.662212            0.288370226     0.938965341   0.000165317318 -6.28313429e-05   0.000165317318  -6.2831343e-05      0.290452745     0.938343493
12.66224             0.288744274     0.938838353    0.00016553096 -6.29926105e-05    0.00016553096 -6.29926106e-05      0.290826785     0.938215614
12.662268            0.289118529      0.93871112   0.000165744906 -6.31542826e-05   0.000165744906 -6.31542827e-05      0.291201031      0.93808749
12.662296            0.289492992     0.938583642   0.000165959155 -6.33163602e-05   0.000165959156 -6.33163603e-05      0.291575484      0.93795912
12.662324            0.289867662      0.93845592    0.00016617371 -6.34788446e-05    0.00016617371 -6.34788447e-05      0.291950144     0.937830505
12.662352             0.29024254     0.938327952   0.000166388569 -6.36417367e-05   0.000166388569 -6.36417368e-05      0.292325011     0.937701644
12.66238             0.290617625     0.938199738   0.000166603733 -6.38050377e-05   0.000166603733 -6.38050378e-05      0.292700085     0.937572536
12.662408            0.290992918     0.938071278   0.000166819203 -6.39687486e-05   0.000166819203 -6.39687487e-05      0.293075366     0.937443181
12.662436            0.291368419     0.937942571   0.000167034979 -6.41328705e-05    0.00016703498 -6.41328706e-05      0.293450855     0.937313578
12.662464            0.291744128     0.937813617   0.000167251062 -6.42974045e-05   0.000167251062 -6.42974046e-05      0.293826551     0.937183728
12.662492            0.292120045     0.937684415   0.000167467452 -6.44623517e-05   0.000167467452 -6.44623518e-05      0.294202455      0.93705363
12.66252              0.29249617     0.937554966   0.000167684148 -6.46277133e-05   0.000167684149 -6.46277134e-05      0.294578567     0.936923283
12.662548            0.292872504     0.937425268   0.000167901153 -6.47934903e-05   0.000167901153 -6.47934904e-05      0.294954886     0.936792687
12.662576            0.293249047     0.937295321   0.000168118466 -6.49596838e-05   0.000168118466 -6.49596839e-05      0.295331414     0.936661841
12.662604            0.293625798     0.937165125   0.000168336087  -6.5126295e-05   0.000168336087 -6.51262951e-05      0.295708149     0.936530746
12.662632            0.294002758     0.937034679   0.000168554017 -6.52933249e-05   0.000168554017  -6.5293325e-05      0.296085093       0.9363994
12.66266             0.294379927     0.936903983   0.000168772257 -6.54607746e-05   0.000168772257 -6.54607747e-05      0.296462246     0.936267803
12.662688            0.294757305     0.936773037   0.000168990806 -6.56286454e-05   0.000168990806 -6.56286455e-05      0.296839607     0.936135956
12.662716            0.295134892      0.93664184   0.000169209666 -6.57969383e-05   0.000169209666 -6.57969384e-05      0.297217176     0.936003857
12.662744            0.295512688     0.936510391   0.000169428836 -6.59656544e-05   0.000169428836 -6.59656545e-05      0.297594955     0.935871506
12.662772            0.295890694     0.936378691   0.000169648317 -6.61347949e-05   0.000169648317  -6.6134795e-05      0.297972942     0.935738902
12.6628               0.29626891     0.936246739   0.000169868109 -6.63043608e-05   0.000169868109 -6.63043609e-05      0.298351138     0.935606046
12.662828            0.296647335     0.936114534   0.000170088213 -6.64743535e-05   0.000170088214 -6.64743536e-05      0.298729544     0.935472936
12.662856             0.29702597     0.935982075    0.00017030863 -6.66447739e-05    0.00017030863  -6.6644774e-05      0.299108158     0.935339573
12.662884            0.297404815     0.935849364   0.000170529359 -6.68156232e-05   0.000170529359 -6.68156233e-05      0.299486983     0.935205955
12.662912             0.29778387     0.935716399   0.000170750401 -6.69869025e-05   0.000170750401 -6.69869027e-05      0.299866016     0.935072083
12.66294             0.298163135     0.935583179   0.000170971757 -6.71586131e-05   0.000170971757 -6.71586132e-05       0.30024526     0.934937956
12.662968            0.298542611     0.935449704   0.000171193426 -6.73307561e-05   0.000171193427 -6.73307562e-05      0.300624713     0.934803574
12.662996            0.298922297     0.935315975    0.00017141541 -6.75033326e-05    0.00017141541 -6.75033327e-05      0.301004376     0.934668936
12.663024            0.299302194     0.935181989   0.000171637708 -6.76763437e-05   0.000171637709 -6.76763438e-05      0.301384249     0.934534042
12.663052            0.299682302     0.935047748   0.000171860322 -6.78497907e-05   0.000171860322 -6.78497908e-05      0.301764333     0.934398891
12.66308              0.30006262     0.934913251   0.000172083251 -6.80236748e-05   0.000172083251 -6.80236749e-05      0.302144626     0.934263482
12.663108             0.30044315     0.934778496   0.000172306496 -6.81979969e-05   0.000172306496  -6.8197997e-05       0.30252513     0.934127817
12.663136             0.30082389     0.934643484   0.000172530057 -6.83727585e-05   0.000172530058 -6.83727586e-05      0.302905845     0.933991893
12.663164            0.301204842     0.934508214   0.000172753935 -6.85479605e-05   0.000172753936 -6.85479606e-05       0.30328677     0.933855711
12.663192            0.301586005     0.934372686   0.000172978131 -6.87236043e-05   0.000172978131 -6.87236044e-05      0.303667907      0.93371927
12.66322              0.30196738       0.9342369   0.000173202643  -6.8899691e-05   0.000173202644 -6.88996911e-05      0.304049254      0.93358257
12.663248            0.302348966     0.934100854   0.000173427474 -6.90762217e-05   0.000173427475 -6.90762218e-05      0.304430812      0.93344561
12.663276            0.302730764     0.933964549   0.000173652623 -6.92531977e-05   0.000173652624 -6.92531978e-05      0.304812581     0.933308389
12.663304            0.303112774     0.933827984   0.000173878091 -6.94306201e-05   0.000173878092 -6.94306202e-05      0.305194562     0.933170909
12.663332            0.303494996     0.933691159   0.000174103879 -6.96084902e-05   0.000174103879 -6.96084903e-05      0.305576754     0.933033167
12.66336              0.30387743     0.933554072   0.000174329985 -6.97868091e-05   0.000174329986 -6.97868092e-05      0.305959157     0.932895164
12.663388            0.304260077     0.933416725   0.000174556412 -6.99655781e-05   0.000174556413 -6.99655782e-05      0.306341773     0.932756898
12.663416            0.304642935     0.933279116    0.00017478316 -7.01447984e-05    0.00017478316 -7.01447985e-05        0.3067246     0.932618371
12.663444            0.305026007     0.933141244   0.000175010228 -7.03244711e-05   0.000175010228 -7.03244712e-05      0.307107639      0.93247958
12.663472            0.305409291      0.93300311   0.000175237617 -7.05045975e-05   0.000175237618 -7.05045976e-05       0.30749089     0.932340527
12.6635              0.305792787     0.932864713   0.000175465329 -7.06851787e-05   0.000175465329 -7.06851788e-05      0.307874353     0.932201209
12.663528            0.306176497     0.932726053   0.000175693362 -7.08662161e-05   0.000175693362 -7.08662162e-05      0.308258029     0.932061628
12.663556            0.306560419     0.932587128   0.000175921718 -7.10477109e-05   0.000175921718  -7.1047711e-05      0.308641917     0.931921782
12.663584            0.306944555      0.93244794   0.000176150397 -7.12296642e-05   0.000176150397 -7.12296643e-05      0.309026018     0.931781671
12.663612            0.307328904     0.932308486   0.000176379399 -7.14120773e-05   0.000176379399 -7.14120774e-05      0.309410331     0.931641294
12.66364             0.307713467     0.932168767   0.000176608725 -7.15949514e-05   0.000176608725 -7.15949515e-05      0.309794857     0.931500652
12.663668            0.308098243     0.932028783   0.000176838375 -7.17782878e-05   0.000176838375  -7.1778288e-05      0.310179596     0.931359743
12.663696            0.308483232     0.931888532    0.00017706835 -7.19620878e-05    0.00017706835 -7.19620879e-05      0.310564548     0.931218567
12.663724            0.308868436     0.931748014   0.000177298649 -7.21463524e-05    0.00017729865 -7.21463525e-05      0.310949713     0.931077124
12.663752            0.309253853      0.93160723   0.000177529275 -7.23310831e-05   0.000177529275 -7.23310832e-05      0.311335092     0.930935413
12.66378             0.309639485     0.931466178   0.000177760226  -7.2516281e-05   0.000177760226 -7.25162812e-05      0.311720684     0.930793434
12.663808             0.31002533     0.931324858   0.000177991503 -7.27019475e-05   0.000177991503 -7.27019476e-05       0.31210649     0.930651187
12.663836             0.31041139     0.931183269   0.000178223107 -7.28880837e-05   0.000178223107 -7.28880838e-05      0.312492509      0.93050867
12.663864            0.310797664     0.931041412   0.000178455038 -7.30746909e-05   0.000178455038 -7.30746911e-05      0.312878742     0.930365884
12.663892            0.311184153     0.930899285   0.000178687296 -7.32617705e-05   0.000178687297 -7.32617706e-05      0.313265189     0.930222828
12.66392             0.311570857     0.930756889   0.000178919883 -7.34493236e-05   0.000178919883 -7.34493237e-05       0.31365185     0.930079501
12.663948            0.311957775     0.930614222   0.000179152798 -7.36373515e-05   0.000179152798 -7.36373517e-05      0.314038725     0.929935903
12.663976            0.312344908     0.930471285   0.000179386041 -7.38258556e-05   0.000179386042 -7.38258557e-05      0.314425815     0.929792034
12.664004            0.312732256     0.930328076   0.000179619614 -7.40148371e-05   0.000179619614 -7.40148372e-05      0.314813118     0.929647893
12.664032             0.31311982     0.930184596   0.000179853516 -7.42042972e-05   0.000179853517 -7.42042974e-05      0.315200637      0.92950348
12.66406             0.313507598     0.930040843   0.000180087749 -7.43942374e-05   0.000180087749 -7.43942375e-05       0.31558837     0.929358794
12.664088            0.313895593     0.929896818   0.000180322311 -7.45846588e-05   0.000180322312 -7.45846589e-05      0.315976318     0.929213835
12.664116            0.314283802      0.92975252   0.000180557205 -7.47755627e-05   0.000180557205 -7.47755628e-05      0.316364481     0.929068602
12.664144            0.314672227     0.929607948    0.00018079243 -7.49669505e-05    0.00018079243 -7.49669506e-05      0.316752859     0.928923095
12.664172            0.315060869     0.929463103   0.000181027986 -7.51588235e-05   0.000181027986 -7.51588236e-05      0.317141452     0.928777313
12.6642              0.315449726     0.929317983   0.000181263875  -7.5351183e-05   0.000181263875 -7.53511831e-05       0.31753026     0.928631257
12.664228            0.315838799     0.929172588   0.000181500096 -7.55440302e-05   0.000181500096 -7.55440303e-05      0.317919284     0.928484924
12.664256            0.316228088     0.929026918    0.00018173665 -7.57373665e-05    0.00018173665 -7.57373666e-05      0.318308523     0.928338316
12.664284            0.316617593     0.928880972   0.000181973537 -7.59311932e-05   0.000181973537 -7.59311934e-05      0.318697978     0.928191431
12.664312            0.317007315     0.928734749   0.000182210758 -7.61255117e-05   0.000182210758 -7.61255118e-05      0.319087648     0.928044269
12.66434             0.317397254      0.92858825   0.000182448313 -7.63203232e-05   0.000182448313 -7.63203234e-05      0.319477535      0.92789683
12.664368            0.317787409     0.928441474   0.000182686203 -7.65156292e-05   0.000182686203 -7.65156293e-05      0.319867637     0.927749112
12.664396            0.318177781      0.92829442   0.000182924427 -7.67114308e-05   0.000182924428 -7.67114309e-05      0.320257956     0.927601117
12.664424            0.318568369     0.928147087   0.000183162987 -7.69077295e-05   0.000183162988 -7.69077296e-05      0.320648491     0.927452842
12.664452            0.318959175     0.927999476   0.000183401883 -7.71045266e-05   0.000183401884 -7.71045267e-05      0.321039242     0.927304289
12.66448             0.319350198     0.927851586   0.000183641115 -7.73018235e-05   0.000183641116 -7.73018236e-05       0.32143021     0.927155455
12.664508            0.319741439     0.927703416   0.000183880684 -7.74996214e-05   0.000183880685 -7.74996215e-05      0.321821394     0.927006341
12.664536            0.320132896     0.927554966    0.00018412059 -7.76979218e-05    0.00018412059 -7.76979219e-05      0.322212796     0.926856946
12.664564            0.320524571     0.927406236   0.000184360833  -7.7896726e-05   0.000184360834 -7.78967261e-05      0.322604414      0.92670727
12.664592            0.320916464     0.927257224   0.000184601415 -7.80960354e-05   0.000184601415 -7.80960355e-05      0.322996249     0.926557313
12.66462             0.321308575     0.927107931   0.000184842334 -7.82958513e-05   0.000184842335 -7.82958514e-05      0.323388301     0.926407073
12.664648            0.321700903     0.926958356   0.000185083593  -7.8496175e-05   0.000185083593 -7.84961752e-05       0.32378057      0.92625655
12.664676             0.32209345     0.926808498    0.00018532519 -7.86970081e-05    0.00018532519 -7.86970082e-05      0.324173057     0.926105744
12.664704            0.322486215     0.926658357   0.000185567127 -7.88983518e-05   0.000185567127 -7.88983519e-05      0.324565761     0.925954655
12.664732            0.322879197     0.926507933   0.000185809404 -7.91002075e-05   0.000185809404 -7.91002077e-05      0.324958683     0.925803282
12.66476             0.323272399     0.926357225   0.000186052021 -7.93025767e-05   0.000186052021 -7.93025768e-05      0.325351822     0.925651623
12.664788            0.323665819     0.926206233   0.000186294979 -7.95054606e-05    0.00018629498 -7.95054607e-05      0.325745179      0.92549968
12.664816            0.324059457     0.926054955   0.000186538279 -7.97088608e-05   0.000186538279 -7.97088609e-05      0.326138755     0.925347451
12.664844            0.324453314     0.925903392    0.00018678192 -7.99127785e-05    0.00018678192 -7.99127786e-05      0.326532548     0.925194936
12.664872             0.32484739     0.925751544   0.000187025903 -8.01172152e-05   0.000187025903 -8.01172153e-05       0.32692656     0.925042135
12.6649              0.325241685     0.925599408   0.000187270228 -8.03221723e-05   0.000187270229 -8.03221724e-05      0.327320789     0.924889046
12.664928            0.325636199     0.925446986   0.000187514897 -8.05276512e-05   0.000187514897 -8.05276513e-05      0.327715238      0.92473567
12.664956            0.326030933     0.925294277   0.000187759908 -8.07336533e-05   0.000187759909 -8.07336534e-05      0.328109904     0.924582006
12.664984            0.326425886     0.925141279   0.000188005264   -8.094018e-05   0.000188005264 -8.09401801e-05       0.32850479     0.924428053
12.665012            0.326821058     0.924987994   0.000188250963 -8.11472328e-05   0.000188250964 -8.11472329e-05      0.328899894     0.924273811
12.66504              0.32721645     0.924834419   0.000188497008 -8.13548131e-05   0.000188497008 -8.13548132e-05      0.329295217      0.92411928
12.665068            0.327612061     0.924680555   0.000188743397 -8.15629222e-05   0.000188743397 -8.15629223e-05      0.329690759     0.923964459
12.665096            0.328007893     0.924526401   0.000188990131 -8.17715617e-05   0.000188990131 -8.17715618e-05      0.330086521     0.923809347
12.665124            0.328403944     0.924371957   0.000189237211  -8.1980733e-05   0.000189237212 -8.19807331e-05      0.330482501     0.923653944
12.665152            0.328800215     0.924217222   0.000189484638 -8.21904375e-05   0.000189484638 -8.21904376e-05      0.330878701      0.92349825
12.66518             0.329196707     0.924062196   0.000189732411 -8.24006766e-05   0.000189732411 -8.24006767e-05      0.331275121     0.923342263
12.665208            0.329593419     0.923906877   0.000189980531 -8.26114519e-05   0.000189980531  -8.2611452e-05       0.33167176     0.923185984
12.665236            0.329990351     0.923751267   0.000190228999 -8.28227647e-05   0.000190228999 -8.28227648e-05      0.332068619     0.923029412
12.665264            0.330387504     0.923595363   0.000190477814 -8.30346165e-05   0.000190477814 -8.30346166e-05      0.332465697     0.922872547
12.665292            0.330784878     0.923439166   0.000190726978 -8.32470088e-05   0.000190726978 -8.32470089e-05      0.332862996     0.922715387
12.66532             0.331182473     0.923282676    0.00019097649  -8.3459943e-05    0.00019097649 -8.34599432e-05      0.333260515     0.922557933
12.665348            0.331580288     0.923125891   0.000191226352 -8.36734207e-05   0.000191226352 -8.36734208e-05      0.333658253     0.922400184
12.665376            0.331978324     0.922968811   0.000191476563 -8.38874433e-05   0.000191476563 -8.38874434e-05      0.334056213      0.92224214
12.665404            0.332376582     0.922811435   0.000191727123 -8.41020122e-05   0.000191727124 -8.41020123e-05      0.334454392     0.922083799