! TOUCHSTONE file generated by CST MICROWAVE STUDIO
! Date and time: Wed Jul 31 17:56:20 2024
! Project name: WaveGuide_BPF-Ver4.1_U-shape_Ku_T3_C4_CWA_2.cst
! Parameters = {cavity_h=16; cavity_l0=10; cavity_l1=15.2077; cavity_l2=16.8367; cavity_l3=17.0986; cavity_l4=17.234; cavity_l5=17.1584; cavity_l6=17.6191; cavity_r=2.5; cavity_screw_l=0.5; cavity_screw_r=1.5; cavity_w=8; iris_h00=0; iris_h01=8.8147; iris_h112=0; iris_h12=5.5942; iris_h211=3.6634; iris_h23=5.2087; iris_h310=3.9713; iris_h34=5.0696; iris_h45=4.9187; iris_h49=4.6099; iris_h56=4.7964; iris_h58=4.4411; iris_h67=6.5815; iris_rx=0.1; iris_screw_l=0.5; iris_screw_r=1.5; iris_shift00=0; iris_shift112=0; iris_shift211=3.5; iris_shift310=0; iris_shift49=0; iris_shift58=3.5; iris_shift67=3.5; iris_tx=4.5; iris_tz=4.5; iris_w00=0; iris_w112=0; iris_w211=4; iris_w310=3.9713; iris_w49=4.6099; iris_w58=4; iris_w67=4; mesh_cavity=5; mesh_iris=7; mesh_screw=7; order=12; reset_all=0; sigma=4.8e+07}
! Header version: 2018
! Port assignment regex: !\s*Touchstone port\s*([0-9]+)\s*=\s*(CST MWS port|CST DS port)\s*([0-9]+|Zmin|Zmax)\s*\(\"(.*)\"\)(\s*mode\s*([0-9]+))?.*
! Touchstone port assignment:
! Touchstone port 1 = CST MWS port 1 ("")
! Touchstone port 2 = CST MWS port 2 ("")
# GHz S RI R 50
12.66                0.328847203     0.923960654   0.000222219684 -9.71974713e-05   0.000222219684 -9.71974712e-05       0.33184381     0.922879707
12.660028             0.32924848     0.923803331   0.000222522444 -9.74529575e-05   0.000222522444 -9.74529574e-05      0.332245671      0.92272065
12.660056            0.329650039     0.923645689   0.000222825655 -9.77091165e-05   0.000222825655 -9.77091164e-05      0.332647682     0.922561318
12.660084            0.330051857     0.923487734   0.000223129317 -9.79659512e-05   0.000223129317 -9.79659511e-05      0.333049877     0.922401698
12.660112            0.330453912     0.923329474   0.000223433428 -9.82234649e-05   0.000223433428 -9.82234648e-05       0.33345229     0.922241777
12.66014             0.330856182     0.923170917   0.000223737989 -9.84816604e-05   0.000223737988 -9.84816603e-05      0.333854955     0.922081543
12.660168            0.331258666      0.92301206   0.000224042999 -9.87405399e-05   0.000224042999 -9.87405398e-05      0.334257873     0.921920995
12.660196             0.33166138       0.9228529   0.000224348461 -9.90001044e-05   0.000224348461 -9.90001043e-05      0.334661021      0.92176014
12.660224            0.332064324     0.922693435   0.000224654374 -9.92603558e-05   0.000224654374 -9.92603557e-05      0.335064398     0.921598979
12.660252            0.332467498     0.922533665    0.00022496074 -9.95212962e-05    0.00022496074 -9.95212961e-05      0.335468006      0.92143751
12.66028             0.332870902     0.922373589    0.00022526756 -9.97829275e-05   0.000225267559 -9.97829274e-05      0.335871844     0.921275734
12.660308            0.333274537     0.922213207   0.000225574832 -0.000100045252   0.000225574832 -0.000100045252      0.336275912     0.921113649
12.660336            0.333678402     0.922052517   0.000225882559 -0.000100308271   0.000225882559 -0.000100308271      0.336680211     0.920951254
12.660364            0.334082498     0.921891521   0.000226190741 -0.000100571986   0.000226190741 -0.000100571986       0.33708474      0.92078855
12.660392            0.334486824     0.921730216   0.000226499378 -0.000100836401   0.000226499378 -0.000100836401        0.3374895     0.920625536
12.66042             0.334891381     0.921568603   0.000226808471 -0.000101101516   0.000226808471 -0.000101101516      0.337894491     0.920462212
12.660448            0.335296169     0.921406681   0.000227118021 -0.000101367334   0.000227118021 -0.000101367334      0.338299713     0.920298576
12.660476            0.335701189     0.921244449   0.000227428028 -0.000101633857   0.000227428028 -0.000101633857      0.338705167     0.920134628
12.660504             0.33610644     0.921081907   0.000227738493 -0.000101901086   0.000227738492 -0.000101901086      0.339110851     0.919970367
12.660532            0.336511922     0.920919054   0.000228049416 -0.000102169025   0.000228049415 -0.000102169025      0.339516767     0.919805794
12.66056             0.336917635      0.92075589   0.000228360798 -0.000102437674   0.000228360798 -0.000102437674      0.339922915     0.919640908
12.660588            0.337323581     0.920592415    0.00022867264 -0.000102707036   0.000228672639 -0.000102707035      0.340329295     0.919475707
12.660616            0.337729758     0.920428627   0.000228984941 -0.000102977112   0.000228984941 -0.000102977112      0.340735906     0.919310192
12.660644            0.338136167     0.920264525   0.000229297704 -0.000103247906   0.000229297704 -0.000103247906      0.341142749     0.919144361
12.660672            0.338542808     0.920100111   0.000229610928 -0.000103519418   0.000229610928 -0.000103519418      0.341549825     0.918978215
12.6607              0.338949681     0.919935382   0.000229924614 -0.000103791651   0.000229924614 -0.000103791651      0.341957132     0.918811752
12.660728            0.339356787     0.919770339   0.000230238763 -0.000104064608   0.000230238762 -0.000104064607      0.342364672     0.918644973
12.660756            0.339764126     0.919604981   0.000230553374 -0.000104338289   0.000230553374 -0.000104338289      0.342772445     0.918477876
12.660784            0.340171696     0.919439307    0.00023086845 -0.000104612697    0.00023086845 -0.000104612697       0.34318045     0.918310461
12.660812              0.3405795     0.919273316    0.00023118399 -0.000104887835   0.000231183989 -0.000104887835      0.343588688     0.918142728
12.66084             0.340987537     0.919107009   0.000231499994 -0.000105163704   0.000231499994 -0.000105163704      0.343997159     0.917974675
12.660868            0.341395806     0.918940384   0.000231816465 -0.000105440306   0.000231816464 -0.000105440306      0.344405863     0.917806303
12.660896            0.341804309     0.918773442   0.000232133401 -0.000105717644   0.000232133401 -0.000105717644        0.3448148      0.91763761
12.660924            0.342213045     0.918606181   0.000232450804 -0.000105995719   0.000232450804 -0.000105995719      0.345223971     0.917468597
12.660952            0.342622015       0.9184386   0.000232768675 -0.000106274534   0.000232768674 -0.000106274534      0.345633375     0.917299262
12.66098             0.343031218       0.9182707   0.000233087013  -0.00010655409   0.000233087013  -0.00010655409      0.346043012     0.917129605
12.661008            0.343440654      0.91810248    0.00023340582 -0.000106834391    0.00023340582 -0.000106834391      0.346452884     0.916959626
12.661036            0.343850325     0.917933939   0.000233725096 -0.000107115437   0.000233725096 -0.000107115437      0.346862989     0.916789323
12.661064            0.344260229     0.917765076   0.000234044841 -0.000107397232   0.000234044841 -0.000107397231      0.347273328     0.916618697
12.661092            0.344670368     0.917595891   0.000234365057 -0.000107679776   0.000234365057 -0.000107679776      0.347683901     0.916447746
12.66112             0.345080741     0.917426384   0.000234685744 -0.000107963073   0.000234685744 -0.000107963073      0.348094708      0.91627647
12.661148            0.345491348     0.917256554   0.000235006903 -0.000108247125   0.000235006902 -0.000108247125       0.34850575     0.916104869
12.661176             0.34590219       0.9170864   0.000235328533 -0.000108531934   0.000235328533 -0.000108531933      0.348917027     0.915932942
12.661204            0.346313266     0.916915921   0.000235650636 -0.000108817501   0.000235650636 -0.000108817501      0.349328538     0.915760689
12.661232            0.346724577     0.916745118   0.000235973212 -0.000109103829   0.000235973212 -0.000109103829      0.349740283     0.915588108
12.66126             0.347136123     0.916573989   0.000236296263  -0.00010939092   0.000236296262  -0.00010939092      0.350152264     0.915415199
12.661288            0.347547904     0.916402534   0.000236619787 -0.000109678777   0.000236619787 -0.000109678777       0.35056448     0.915241962
12.661316             0.34795992     0.916230753   0.000236943787 -0.000109967402   0.000236943787 -0.000109967402       0.35097693     0.915068396
12.661344            0.348372172     0.916058644   0.000237268262 -0.000110256796   0.000237268262 -0.000110256796      0.351389617       0.9148945
12.661372            0.348784658     0.915886208   0.000237593214 -0.000110546962   0.000237593214 -0.000110546962      0.351802538     0.914720274
12.6614              0.349197381     0.915713443   0.000237918642 -0.000110837902   0.000237918642 -0.000110837902      0.352215695     0.914545717
12.661428            0.349610339     0.915540349   0.000238244548 -0.000111129619   0.000238244548 -0.000111129619      0.352629088     0.914370829
12.661456            0.350023533     0.915366925   0.000238570932 -0.000111422114   0.000238570931 -0.000111422114      0.353042716     0.914195609
12.661484            0.350436962     0.915193172   0.000238897794  -0.00011171539   0.000238897794  -0.00011171539      0.353456581     0.914020056
12.661512            0.350850628     0.915019087   0.000239225136  -0.00011200945   0.000239225135 -0.000112009449      0.353870681     0.913844171
12.66154              0.35126453     0.914844671   0.000239552957 -0.000112304294   0.000239552957 -0.000112304294      0.354285018     0.913667951
12.661568            0.351678669     0.914669924   0.000239881259 -0.000112599926   0.000239881258 -0.000112599926      0.354699591     0.913491397
12.661596            0.352093043     0.914494843   0.000240210041 -0.000112896348   0.000240210041 -0.000112896348      0.355114401     0.913314508
12.661624            0.352507655      0.91431943   0.000240539305 -0.000113193562   0.000240539305 -0.000113193562      0.355529447     0.913137284
12.661652            0.352922503     0.914143682   0.000240869052 -0.000113491571   0.000240869052  -0.00011349157      0.355944729     0.912959723
12.66168             0.353337588     0.913967601   0.000241199281 -0.000113790376   0.000241199281 -0.000113790375      0.356360249     0.912781826
12.661708             0.35375291     0.913791184   0.000241529993  -0.00011408998   0.000241529993 -0.000114089979      0.356776005     0.912603591
12.661736            0.354168469     0.913614432    0.00024186119 -0.000114390385   0.000241861189 -0.000114390385      0.357191999     0.912425018
12.661764            0.354584265     0.913437343    0.00024219287 -0.000114691593    0.00024219287 -0.000114691593       0.35760823     0.912246107
12.661792            0.355000298     0.913259918   0.000242525036 -0.000114993608   0.000242525036 -0.000114993608      0.358024698     0.912066857
12.66182             0.355416569     0.913082156   0.000242857688 -0.000115296431   0.000242857688  -0.00011529643      0.358441404     0.911887266
12.661848            0.355833078     0.912904055   0.000243190826 -0.000115600064   0.000243190825 -0.000115600064      0.358858347     0.911707335
12.661876            0.356249824     0.912725616    0.00024352445 -0.000115904509    0.00024352445 -0.000115904509      0.359275528     0.911527063
12.661904            0.356666809     0.912546838   0.000243858562  -0.00011620977   0.000243858562  -0.00011620977      0.359692947      0.91134645
12.661932            0.357084031     0.912367719   0.000244193162 -0.000116515849   0.000244193162 -0.000116515849      0.360110604     0.911165494
12.66196             0.357501491     0.912188261   0.000244528251 -0.000116822747   0.000244528251 -0.000116822747      0.360528498     0.910984195
12.661988             0.35791919     0.912008461   0.000244863829 -0.000117130468   0.000244863829 -0.000117130467      0.360946631     0.910802553
12.662016            0.358337127      0.91182832   0.000245199897 -0.000117439013   0.000245199896 -0.000117439012      0.361365003     0.910620566
12.662044            0.358755302     0.911647836   0.000245536455 -0.000117748384   0.000245536455 -0.000117748384      0.361783613     0.910438235
12.662072            0.359173716     0.911467009   0.000245873504 -0.000118058585   0.000245873504 -0.000118058585      0.362202461     0.910255559
12.6621              0.359592369     0.911285839   0.000246211044 -0.000118369618   0.000246211044 -0.000118369618      0.362621549     0.910072536
12.662128            0.360011261     0.911104325   0.000246549077 -0.000118681485   0.000246549077 -0.000118681485      0.363040875     0.909889167
12.662156            0.360430392     0.910922466   0.000246887602 -0.000118994188   0.000246887602 -0.000118994188       0.36346044      0.90970545
12.662184            0.360849761     0.910740261   0.000247226621  -0.00011930773   0.000247226621  -0.00011930773      0.363880244     0.909521386
12.662212             0.36126937      0.91055771   0.000247566133 -0.000119622114   0.000247566133 -0.000119622114      0.364300287     0.909336972
12.66224             0.361689219     0.910374813    0.00024790614 -0.000119937341    0.00024790614 -0.000119937341       0.36472057      0.90915221
12.662268            0.362109307     0.910191569   0.000248246642 -0.000120253414   0.000248246642 -0.000120253414      0.365141092     0.908967098
12.662296            0.362529634     0.910007976    0.00024858764 -0.000120570336    0.00024858764 -0.000120570336      0.365561854     0.908781636
12.662324            0.362950202     0.909824035   0.000248929134 -0.000120888109   0.000248929134 -0.000120888109      0.365982855     0.908595822
12.662352            0.363371009     0.909639745   0.000249271124 -0.000121206735   0.000249271124 -0.000121206735      0.366404096     0.908409657
12.66238             0.363792056     0.909455105   0.000249613612 -0.000121526217   0.000249613612 -0.000121526217      0.366825578      0.90822314
12.662408            0.364213344     0.909270115   0.000249956598 -0.000121846558   0.000249956598 -0.000121846558      0.367247299     0.908036269
12.662436            0.364634871     0.909084773   0.000250300083 -0.000122167759   0.000250300082 -0.000122167759      0.367669261     0.907849045
12.662464            0.365056639      0.90889908   0.000250644066 -0.000122489824   0.000250644066 -0.000122489824      0.368091462     0.907661466
12.662492            0.365478648     0.908713034   0.000250988549 -0.000122812755   0.000250988549 -0.000122812755      0.368513905     0.907473533
12.66252             0.365900897     0.908526636   0.000251333532 -0.000123136554   0.000251333532 -0.000123136554      0.368936588     0.907285244
12.662548            0.366323386     0.908339884   0.000251679017 -0.000123461223   0.000251679016 -0.000123461223      0.369359511     0.907096599
12.662576            0.366746117     0.908152777   0.000252025002 -0.000123786767   0.000252025002 -0.000123786767      0.369782675     0.906907597
12.662604            0.367169089     0.907965315    0.00025237149 -0.000124113186    0.00025237149 -0.000124113186      0.370206081     0.906718237
12.662632            0.367592301     0.907777498    0.00025271848 -0.000124440483    0.00025271848 -0.000124440483      0.370629727      0.90652852
12.66266             0.368015755     0.907589325   0.000253065973 -0.000124768662   0.000253065973 -0.000124768661      0.371053615     0.906338443
12.662688            0.368439451     0.907400795    0.00025341397 -0.000125097723    0.00025341397 -0.000125097723      0.371477743     0.906148007
12.662716            0.368863388     0.907211907   0.000253762471 -0.000125427671   0.000253762471 -0.000125427671      0.371902114     0.905957211
12.662744            0.369287566     0.907022661   0.000254111477 -0.000125758508   0.000254111477 -0.000125758508      0.372326725     0.905766054
12.662772            0.369711986     0.906833057   0.000254460989 -0.000126090236   0.000254460989 -0.000126090236      0.372751579     0.905574536
12.6628              0.370136648     0.906643093   0.000254811006 -0.000126422857   0.000254811006 -0.000126422857      0.373176674     0.905382656
12.662828            0.370561552     0.906452768    0.00025516153 -0.000126756375    0.00025516153 -0.000126756375      0.373602011     0.905190413
12.662856            0.370986698     0.906262083   0.000255512561 -0.000127090792   0.000255512561 -0.000127090792       0.37402759     0.904997806
12.662884            0.371412086     0.906071037     0.0002558641  -0.00012742611     0.0002558641  -0.00012742611      0.374453411     0.904804836
12.662912            0.371837716     0.905879628   0.000256216147 -0.000127762332   0.000256216147 -0.000127762332      0.374879474       0.9046115
12.66294             0.372263589     0.905687856   0.000256568703 -0.000128099461   0.000256568703 -0.000128099461       0.37530578     0.904417799
12.662968            0.372689704     0.905495722   0.000256921768   -0.0001284375   0.000256921768   -0.0001284375      0.375732328     0.904223733
12.662996            0.373116063     0.905303223   0.000257275344  -0.00012877645   0.000257275343  -0.00012877645      0.376159119     0.904029299
12.663024            0.373542663     0.905110359   0.000257629429 -0.000129116316   0.000257629429 -0.000129116316      0.376586153     0.903834498
12.663052            0.373969507      0.90491713   0.000257984026 -0.000129457098   0.000257984026 -0.000129457098      0.377013429     0.903639329
12.66308             0.374396594     0.904723534   0.000258339135 -0.000129798801   0.000258339135 -0.000129798801      0.377440948     0.903443791
12.663108            0.374823924     0.904529572   0.000258694756 -0.000130141426   0.000258694755 -0.000130141426       0.37786871     0.903247884
12.663136            0.375251497     0.904335243   0.000259050889 -0.000130484976   0.000259050889 -0.000130484976      0.378296716     0.903051606
12.663164            0.375679314     0.904140545   0.000259407536 -0.000130829454   0.000259407536 -0.000130829454      0.378724965     0.902854958
12.663192            0.376107374     0.903945479   0.000259764697 -0.000131174864   0.000259764696 -0.000131174863      0.379153457     0.902657938
12.66322             0.376535677     0.903750043   0.000260122372 -0.000131521206   0.000260122372 -0.000131521206      0.379582193     0.902460546
12.663248            0.376964225     0.903554237   0.000260480562 -0.000131868484   0.000260480562 -0.000131868484      0.380011172     0.902262782
12.663276            0.377393016      0.90335806   0.000260839268 -0.000132216702   0.000260839268 -0.000132216702      0.380440395     0.902064644
12.663304            0.377822051     0.903161512    0.00026119849 -0.000132565861    0.00026119849  -0.00013256586      0.380869862     0.901866131
12.663332             0.37825133     0.902964591   0.000261558229 -0.000132915964   0.000261558228 -0.000132915964      0.381299573     0.901667244
12.66336             0.378680854     0.902767298   0.000261918484 -0.000133267014   0.000261918484 -0.000133267014      0.381729528     0.901467981
12.663388            0.379110621     0.902569631   0.000262279258 -0.000133619014   0.000262279258 -0.000133619013      0.382159727     0.901268342
12.663416            0.379540633      0.90237159    0.00026264055 -0.000133971966    0.00026264055 -0.000133971966      0.382590171     0.901068326
12.663444             0.37997089     0.902173174   0.000263002361 -0.000134325874   0.000263002361 -0.000134325873      0.383020858     0.900867932
12.663472            0.380401391     0.901974382   0.000263364692 -0.000134680739   0.000263364691 -0.000134680739      0.383451791      0.90066716
12.6635              0.380832137     0.901775214   0.000263727542 -0.000135036566   0.000263727542 -0.000135036566      0.383882968     0.900466009
12.663528            0.381263128     0.901575669   0.000264090913 -0.000135393356   0.000264090913 -0.000135393356       0.38431439     0.900264478
12.663556            0.381694364     0.901375746   0.000264454805 -0.000135751112   0.000264454805 -0.000135751112      0.384746057     0.900062567
12.663584            0.382125845     0.901175445   0.000264819219 -0.000136109838   0.000264819219 -0.000136109838      0.385177968     0.899860274
12.663612            0.382557571     0.900974765   0.000265184155 -0.000136469536   0.000265184155 -0.000136469536      0.385610125       0.8996576
12.66364             0.382989543     0.900773705   0.000265549614 -0.000136830209   0.000265549613 -0.000136830209      0.386042527     0.899454543
12.663668             0.38342176     0.900572265   0.000265915596 -0.000137191859   0.000265915595 -0.000137191859      0.386475175     0.899251103
12.663696            0.383854222     0.900370444   0.000266282101  -0.00013755449   0.000266282101  -0.00013755449      0.386908067     0.899047279
12.663724             0.38428693      0.90016824   0.000266649132 -0.000137918105   0.000266649132 -0.000137918105      0.387341206     0.898843071
12.663752            0.384719884     0.899965654   0.000267016687 -0.000138282706   0.000267016687 -0.000138282706       0.38777459     0.898638477
12.66378             0.385153084     0.899762685   0.000267384768 -0.000138648296   0.000267384767 -0.000138648296      0.388208219     0.898433497
12.663808             0.38558653     0.899559332   0.000267753374 -0.000139014878   0.000267753374 -0.000139014878      0.388642095      0.89822813
12.663836            0.386020222     0.899355594   0.000268122507 -0.000139382455   0.000268122507 -0.000139382454      0.389076216     0.898022376
12.663864             0.38645416     0.899151471   0.000268492168 -0.000139751029   0.000268492167 -0.000139751029      0.389510584     0.897816233
12.663892            0.386888344     0.898946962   0.000268862355 -0.000140120605   0.000268862355 -0.000140120605      0.389945198     0.897609702
12.66392             0.387322775     0.898742065   0.000269233071 -0.000140491184   0.000269233071 -0.000140491184      0.390380058      0.89740278
12.663948            0.387757452     0.898536782   0.000269604316  -0.00014086277   0.000269604316  -0.00014086277      0.390815164     0.897195469
12.663976            0.388192376      0.89833111    0.00026997609 -0.000141235365    0.00026997609 -0.000141235365      0.391250517     0.896987766
12.664004            0.388627547     0.898125049   0.000270348394 -0.000141608973   0.000270348394 -0.000141608973      0.391686117     0.896779672
12.664032            0.389062964     0.897918598   0.000270721228 -0.000141983596   0.000270721228 -0.000141983596      0.392121963     0.896571185
12.66406             0.389498629     0.897711757   0.000271094593 -0.000142359237   0.000271094592 -0.000142359237      0.392558056     0.896362305
12.664088            0.389934541     0.897504525   0.000271468489   -0.0001427359   0.000271468488   -0.0001427359      0.392994396     0.896153031
12.664116            0.390370699     0.897296901   0.000271842917 -0.000143113587   0.000271842916 -0.000143113587      0.393430983     0.895943362
12.664144            0.390807105     0.897088885   0.000272217877 -0.000143492302   0.000272217877 -0.000143492302      0.393867817     0.895733298
12.664172            0.391243759     0.896880475    0.00027259337 -0.000143872047    0.00027259337 -0.000143872047      0.394304899     0.895522837
12.6642               0.39168066     0.896671671   0.000272969397 -0.000144252825   0.000272969397 -0.000144252825      0.394742228      0.89531198
12.664228            0.392117808     0.896462472   0.000273345958  -0.00014463464   0.000273345957  -0.00014463464      0.395179804     0.895100725
12.664256            0.392555205     0.896252878   0.000273723053 -0.000145017494   0.000273723053 -0.000145017494      0.395617628     0.894889071
12.664284            0.392992849     0.896042888   0.000274100683  -0.00014540139   0.000274100683  -0.00014540139      0.396055699     0.894677019
12.664312            0.393430741       0.8958325   0.000274478849 -0.000145786332   0.000274478848 -0.000145786332      0.396494018     0.894464566
12.66434             0.393868881     0.895621715    0.00027485755 -0.000146172322    0.00027485755 -0.000146172322      0.396932585     0.894251713
12.664368            0.394307269     0.895410532   0.000275236788 -0.000146559364   0.000275236788 -0.000146559364        0.3973714     0.894038459
12.664396            0.394745905     0.895198949   0.000275616564 -0.000146947461   0.000275616564 -0.000146947461      0.397810463     0.893824802
12.664424             0.39518479     0.894986967   0.000275996877 -0.000147336616   0.000275996876 -0.000147336616      0.398249775     0.893610743
12.664452            0.395623923     0.894774584   0.000276377728 -0.000147726831   0.000276377727 -0.000147726831      0.398689334      0.89339628
12.66448             0.396063305     0.894561799   0.000276759117  -0.00014811811   0.000276759117  -0.00014811811      0.399129142     0.893181413
12.664508            0.396502935     0.894348613   0.000277141046 -0.000148510457   0.000277141046 -0.000148510456      0.399569198     0.892966141
12.664536            0.396942814     0.894135023   0.000277523514 -0.000148903873   0.000277523514 -0.000148903873      0.400009503     0.892750463
12.664564            0.397382942      0.89392103   0.000277906522 -0.000149298363   0.000277906522 -0.000149298363      0.400450056     0.892534378
12.664592            0.397823319     0.893706632   0.000278290071 -0.000149693929   0.000278290071 -0.000149693929      0.400890859     0.892317886
12.66462             0.398263944      0.89349183   0.000278674161 -0.000150090575   0.000278674161 -0.000150090575       0.40133191     0.892100986
12.664648            0.398704819     0.893276621   0.000279058793 -0.000150488304   0.000279058793 -0.000150488304       0.40177321     0.891883677
12.664676            0.399145944     0.893061006   0.000279443967 -0.000150887119   0.000279443967 -0.000150887119      0.402214759     0.891665958
12.664704            0.399587317     0.892844983   0.000279829683 -0.000151287023   0.000279829683 -0.000151287023      0.402656557     0.891447829
12.664732             0.40002894     0.892628553   0.000280215943 -0.000151688019   0.000280215943 -0.000151688019      0.403098605     0.891229289
12.66476             0.400470813     0.892411713   0.000280602746 -0.000152090111   0.000280602746 -0.000152090111      0.403540902     0.891010337
12.664788            0.400912935     0.892194464   0.000280990093 -0.000152493302   0.000280990093 -0.000152493302      0.403983448     0.890790972
12.664816            0.401355307     0.891976804   0.000281377985 -0.000152897594   0.000281377985 -0.000152897594      0.404426244     0.890571194
12.664844            0.401797928     0.891758733   0.000281766422 -0.000153302992   0.000281766421 -0.000153302992      0.404869289     0.890351001
12.664872              0.4022408      0.89154025   0.000282155404 -0.000153709499   0.000282155404 -0.000153709498      0.405312584     0.890130394
12.6649              0.402683922     0.891321354   0.000282544933 -0.000154117117   0.000282544932 -0.000154117117      0.405756129     0.889909371
12.664928            0.403127293     0.891102045   0.000282935008  -0.00015452585   0.000282935007  -0.00015452585      0.406199924     0.889687931
12.664956            0.403570915     0.890882322    0.00028332563 -0.000154935701   0.000283325629 -0.000154935701      0.406643969     0.889466074
12.664984            0.404014787     0.890662183   0.000283716799 -0.000155346674   0.000283716799 -0.000155346674      0.407088264     0.889243799
12.665012             0.40445891     0.890441629   0.000284108516 -0.000155758772   0.000284108516 -0.000155758771      0.407532809     0.889021105
12.66504             0.404903283     0.890220658   0.000284500782 -0.000156171997   0.000284500782 -0.000156171997      0.407977604     0.888797991
12.665068            0.405347907      0.88999927   0.000284893597 -0.000156586355   0.000284893597 -0.000156586355       0.40842265     0.888574457
12.665096            0.405792781     0.889777463   0.000285286961 -0.000157001847   0.000285286961 -0.000157001847      0.408867946     0.888350501
12.665124            0.406237907     0.889555238   0.000285680875 -0.000157418477   0.000285680875 -0.000157418477      0.409313493     0.888126124
12.665152            0.406683283     0.889332593    0.00028607534 -0.000157836249    0.00028607534 -0.000157836249      0.409759291     0.887901324
12.66518              0.40712891     0.889109527   0.000286470355 -0.000158255165   0.000286470355 -0.000158255165      0.410205339       0.8876761
12.665208            0.407574788      0.88888604   0.000286865922  -0.00015867523   0.000286865921  -0.00015867523      0.410651638     0.887450452
12.665236            0.408020917     0.888662131    0.00028726204 -0.000159096447    0.00028726204 -0.000159096447      0.411098188     0.887224378
12.665264            0.408467297       0.8884378    0.00028765871 -0.000159518818    0.00028765871 -0.000159518818      0.411544988     0.886997879
12.665292            0.408913929     0.888213044   0.000288055933 -0.000159942348   0.000288055933 -0.000159942348       0.41199204     0.886770953
12.66532             0.409360812     0.887987864   0.000288453709 -0.000160367039   0.000288453709 -0.000160367039      0.412439344     0.886543599
12.665348            0.409807947     0.887762259   0.000288852039 -0.000160792896   0.000288852039 -0.000160792896      0.412886898     0.886315817
12.665376            0.410255333     0.887536228   0.000289250923 -0.000161219921   0.000289250923 -0.000161219921      0.413334704     0.886087606
12.665404            0.410702971     0.887309769   0.000289650361 -0.000161648119   0.000289650361 -0.000161648119      0.413782761     0.885858964