! TOUCHSTONE file generated by CST MICROWAVE STUDIO
! Date and time: Wed Jul 31 18:18:11 2024
! Project name: WaveGuide_BPF-Ver4.1_U-shape_Ku_T3_C4_CWA_2.cst
! Parameters = {cavity_h=16; cavity_l0=10; cavity_l1=15.1744; cavity_l2=16.8784; cavity_l3=17.065; cavity_l4=17.2929; cavity_l5=17.1114; cavity_l6=17.554; cavity_r=2.5; cavity_screw_l=0.5; cavity_screw_r=1.5; cavity_w=8; iris_h00=0; iris_h01=8.8308; iris_h112=0; iris_h12=5.5872; iris_h211=3.6644; iris_h23=5.2112; iris_h310=3.9606; iris_h34=5.0875; iris_h45=4.936; iris_h49=4.6149; iris_h56=4.7992; iris_h58=4.4293; iris_h67=6.5675; iris_rx=0.1; iris_screw_l=0.5; iris_screw_r=1.5; iris_shift00=0; iris_shift112=0; iris_shift211=3.5; iris_shift310=0; iris_shift49=0; iris_shift58=3.5; iris_shift67=3.5; iris_tx=4.5; iris_tz=4.5; iris_w00=0; iris_w112=0; iris_w211=4; iris_w310=3.9606; iris_w49=4.6149; iris_w58=4; iris_w67=4; mesh_cavity=5; mesh_iris=7; mesh_screw=7; order=12; reset_all=0; sigma=4.8e+07}
! Header version: 2018
! Port assignment regex: !\s*Touchstone port\s*([0-9]+)\s*=\s*(CST MWS port|CST DS port)\s*([0-9]+|Zmin|Zmax)\s*\(\"(.*)\"\)(\s*mode\s*([0-9]+))?.*
! Touchstone port assignment:
! Touchstone port 1 = CST MWS port 1 ("")
! Touchstone port 2 = CST MWS port 2 ("")
# GHz S RI R 50
12.66                0.279523972     0.941594626   0.000290892929 -0.000111465256   0.000290892929 -0.000111465255      0.282965714     0.940634991
12.660028            0.279900193       0.9414695    0.00029135082 -0.000111786365   0.000291350819 -0.000111786364      0.283340494     0.940508836
12.660056            0.280276606     0.941344129   0.000291809555 -0.000112108428   0.000291809555 -0.000112108427      0.283715592       0.9403824
12.660084             0.28065323     0.941218509   0.000292269138 -0.000112431446   0.000292269138 -0.000112431445      0.284090973     0.940255692
12.660112            0.281030086     0.941092632   0.000292729573 -0.000112755421   0.000292729573  -0.00011275542      0.284466603     0.940128723
12.66014             0.281407193     0.940966493   0.000293190863 -0.000113080353   0.000293190863 -0.000113080352      0.284842446     0.940001502
12.660168            0.281784551     0.940840091   0.000293653009 -0.000113406246   0.000293653009 -0.000113406245      0.285218503      0.93987403
12.660196            0.282162148      0.94071343   0.000294116013 -0.000113733104   0.000294116013 -0.000113733103      0.285594796     0.939746298
12.660224            0.282539983     0.940586509   0.000294579876  -0.00011406093   0.000294579876 -0.000114060929      0.285971328     0.939618305
12.660252            0.282918058     0.940459327   0.000295044599 -0.000114389728   0.000295044599 -0.000114389727      0.286348097     0.939490053
12.66028             0.283296371     0.940331885   0.000295510185   -0.0001147195   0.000295510185 -0.000114719499      0.286725104     0.939361539
12.660308            0.283674924     0.940204181   0.000295976636  -0.00011505025   0.000295976636 -0.000115050248      0.287102349     0.939232764
12.660336            0.284053716     0.940076214   0.000296443952  -0.00011538198   0.000296443952 -0.000115381979      0.287479833     0.939103727
12.660364            0.284432748     0.939947986   0.000296912136 -0.000115714695   0.000296912136 -0.000115714694      0.287857555     0.938974427
12.660392             0.28481202     0.939819494    0.00029738119 -0.000116048398    0.00029738119 -0.000116048397      0.288235516     0.938844864
12.66042             0.285191533     0.939690739   0.000297851115 -0.000116383091   0.000297851115 -0.000116383089      0.288613716     0.938715038
12.660448            0.285571286     0.939561719   0.000298321913 -0.000116718777   0.000298321913 -0.000116718776      0.288992155     0.938584947
12.660476            0.285951279     0.939432435   0.000298793586 -0.000117055461   0.000298793586  -0.00011705546      0.289370834     0.938454592
12.660504            0.286331514     0.939302886   0.000299266136 -0.000117393145   0.000299266136 -0.000117393144      0.289749753     0.938323972
12.660532             0.28671199     0.939173072   0.000299739564 -0.000117731833   0.000299739564 -0.000117731832      0.290128912     0.938193086
12.66056             0.287092707     0.939042991   0.000300213872 -0.000118071528   0.000300213872 -0.000118071527      0.290508311     0.938061935
12.660588            0.287473666     0.938912643   0.000300689062 -0.000118412233   0.000300689062 -0.000118412232       0.29088795     0.937930516
12.660616            0.287854867     0.938782029   0.000301165137 -0.000118753951   0.000301165136  -0.00011875395       0.29126783     0.937798831
12.660644             0.28823631     0.938651147   0.000301642096 -0.000119096686   0.000301642096 -0.000119096685      0.291647951     0.937666877
12.660672            0.288617995     0.938519996   0.000302119943 -0.000119440442   0.000302119943 -0.000119440441      0.292028313     0.937534656
12.6607              0.288999923     0.938388577    0.00030259868 -0.000119785221    0.00030259868  -0.00011978522      0.292408917     0.937402166
12.660728            0.289382094     0.938256889   0.000303078307 -0.000120131027   0.000303078307 -0.000120131026      0.292789762     0.937269406
12.660756            0.289764507     0.938124931   0.000303558827 -0.000120477863   0.000303558827 -0.000120477862      0.293170849     0.937136377
12.660784            0.290147164     0.937992702   0.000304040242 -0.000120825733   0.000304040242 -0.000120825732      0.293552178     0.937003078
12.660812            0.290530065     0.937860203   0.000304522554 -0.000121174639   0.000304522554 -0.000121174638      0.293933749     0.936869508
12.66084             0.290913209     0.937727433   0.000305005763 -0.000121524587   0.000305005763 -0.000121524586      0.294315563     0.936735666
12.660868            0.291296597      0.93759439   0.000305489873 -0.000121875578   0.000305489873 -0.000121875577       0.29469762     0.936601552
12.660896             0.29168023     0.937461075   0.000305974885 -0.000122227616   0.000305974884 -0.000122227615      0.295079919     0.936467167
12.660924            0.292064106     0.937327488     0.0003064608 -0.000122580705     0.0003064608 -0.000122580704      0.295462462     0.936332508
12.660952            0.292448228     0.937193626   0.000306947621 -0.000122934849   0.000306947621 -0.000122934848      0.295845248     0.936197576
12.66098             0.292832594     0.937059491   0.000307435349  -0.00012329005   0.000307435349 -0.000123290049      0.296228278     0.936062369
12.661008            0.293217206     0.936925081   0.000307923987 -0.000123646312   0.000307923987 -0.000123646311      0.296611552     0.935926888
12.661036            0.293602063     0.936790397   0.000308413536 -0.000124003639   0.000308413536 -0.000124003638       0.29699507     0.935791133
12.661064            0.293987165     0.936655436   0.000308903998 -0.000124362034   0.000308903998 -0.000124362033      0.297378832     0.935655101
12.661092            0.294372513     0.936520199   0.000309395375 -0.000124721501   0.000309395375   -0.0001247215      0.297762839     0.935518793
12.66112             0.294758108     0.936384686   0.000309887668 -0.000125082043   0.000309887668 -0.000125082042      0.298147091     0.935382209
12.661148            0.295143948     0.936248896    0.00031038088 -0.000125443664    0.00031038088 -0.000125443663      0.298531587     0.935245347
12.661176            0.295530035     0.936112827   0.000310875012 -0.000125806367   0.000310875012 -0.000125806366       0.29891633     0.935108208
12.661204            0.295916369      0.93597648   0.000311370067 -0.000126170156   0.000311370067 -0.000126170155      0.299301317      0.93497079
12.661232             0.29630295     0.935839855   0.000311866046 -0.000126535035   0.000311866046 -0.000126535034      0.299686551     0.934833094
12.66126             0.296689778      0.93570295   0.000312362951 -0.000126901006    0.00031236295 -0.000126901005       0.30007203     0.934695118
12.661288            0.297076854     0.935565765   0.000312860783 -0.000127268075   0.000312860783 -0.000127268074      0.300457756     0.934556862
12.661316            0.297464177     0.935428299   0.000313359546 -0.000127636244   0.000313359546 -0.000127636243      0.300843728     0.934418325
12.661344            0.297851748     0.935290553    0.00031385924 -0.000128005516    0.00031385924 -0.000128005515      0.301229947     0.934279507
12.661372            0.298239568     0.935152524   0.000314359868 -0.000128375897   0.000314359868 -0.000128375896      0.301616413     0.934140408
12.6614              0.298627635     0.935014214   0.000314861431 -0.000128747389   0.000314861431 -0.000128747387      0.302003126     0.934001027
12.661428            0.299015952     0.934875621   0.000315363932 -0.000129119995   0.000315363931 -0.000129119994      0.302390087     0.933861362
12.661456            0.299404517     0.934736744   0.000315867371 -0.000129493721   0.000315867371  -0.00012949372      0.302777295     0.933721415
12.661484            0.299793331     0.934597584   0.000316371752 -0.000129868569   0.000316371752 -0.000129868568      0.303164751     0.933581184
12.661512            0.300182395     0.934458139   0.000316877076 -0.000130244543   0.000316877076 -0.000130244541      0.303552455     0.933440668
12.66154             0.300571709     0.934318409   0.000317383345 -0.000130621646   0.000317383345 -0.000130621645      0.303940407     0.933299867
12.661568            0.300961272     0.934178394   0.000317890561 -0.000130999884   0.000317890561 -0.000130999883      0.304328609     0.933158781
12.661596            0.301351085     0.934038092   0.000318398726 -0.000131379259   0.000318398726 -0.000131379258      0.304717059     0.933017408
12.661624            0.301741149     0.933897504   0.000318907841 -0.000131759775   0.000318907841 -0.000131759774      0.305105758     0.932875749
12.661652            0.302131463     0.933756629    0.00031941791 -0.000132141436   0.000319417909 -0.000132141435      0.305494706     0.932733803
12.66168             0.302522028     0.933615465   0.000319928932 -0.000132524245   0.000319928932 -0.000132524244      0.305883904     0.932591569
12.661708            0.302912843     0.933474014   0.000320440911 -0.000132908208   0.000320440911 -0.000132908207      0.306273352     0.932449046
12.661736            0.303303911     0.933332273   0.000320953849 -0.000133293326   0.000320953849 -0.000133293325      0.306663049     0.932306234
12.661764            0.303695229     0.933190243   0.000321467747 -0.000133679605   0.000321467747 -0.000133679604      0.307052997     0.932163133
12.661792              0.3040868     0.933047923   0.000321982607 -0.000134067048   0.000321982607 -0.000134067047      0.307443196     0.932019742
12.66182             0.304478622     0.932905312   0.000322498432 -0.000134455659   0.000322498432 -0.000134455658      0.307833645      0.93187606
12.661848            0.304870696     0.932762409   0.000323015223 -0.000134845442   0.000323015223 -0.000134845441      0.308224345     0.931732087
12.661876            0.305263023     0.932619215   0.000323532982 -0.000135236401   0.000323532982   -0.0001352364      0.308615297     0.931587822
12.661904            0.305655603     0.932475729   0.000324051711  -0.00013562854   0.000324051711 -0.000135628538      0.309006499     0.931443265
12.661932            0.306048436     0.932331949   0.000324571412 -0.000136021862   0.000324571412 -0.000136021861      0.309397954     0.931298414
12.66196             0.306441521     0.932187876   0.000325092088 -0.000136416371   0.000325092088  -0.00013641637      0.309789661      0.93115327
12.661988            0.306834861     0.932043509   0.000325613739 -0.000136812073   0.000325613739 -0.000136812071      0.310181619     0.931007832
12.662016            0.307228453     0.931898847   0.000326136368 -0.000137208969   0.000326136368 -0.000137208968       0.31057383     0.930862099
12.662044              0.3076223     0.931753889   0.000326659978 -0.000137607066   0.000326659978 -0.000137607065      0.310966294     0.930716071
12.662072            0.308016401     0.931608636   0.000327184569 -0.000138006366   0.000327184569 -0.000138006365      0.311359011     0.930569747
12.6621              0.308410756     0.931463086   0.000327710144 -0.000138406873   0.000327710144 -0.000138406872       0.31175198     0.930423126
12.662128            0.308805366     0.931317239   0.000328236705 -0.000138808592   0.000328236705 -0.000138808591      0.312145204     0.930276208
12.662156            0.309200231     0.931171094   0.000328764254 -0.000139211527   0.000328764254 -0.000139211526       0.31253868     0.930128993
12.662184             0.30959535     0.931024651   0.000329292793 -0.000139615681   0.000329292793  -0.00013961568      0.312932411     0.929981479
12.662212            0.309990725     0.930877909   0.000329822324  -0.00014002106   0.000329822324 -0.000140021058      0.313326396     0.929833666
12.66224             0.310386356     0.930730868   0.000330352849 -0.000140427666   0.000330352849 -0.000140427665      0.313720635     0.929685554
12.662268            0.310782243     0.930583526    0.00033088437 -0.000140835504    0.00033088437 -0.000140835503      0.314115129     0.929537142
12.662296            0.311178385     0.930435884   0.000331416888 -0.000141244578   0.000331416888 -0.000141244577      0.314509877     0.929388428
12.662324            0.311574784      0.93028794   0.000331950407 -0.000141654893   0.000331950407 -0.000141654892      0.314904881     0.929239414
12.662352            0.311971439     0.930139694   0.000332484928 -0.000142066452   0.000332484927 -0.000142066451      0.315300139     0.929090098
12.66238             0.312368352     0.929991146   0.000333020452  -0.00014247926   0.000333020452 -0.000142479259      0.315695654     0.928940479
12.662408            0.312765521     0.929842295   0.000333556983  -0.00014289332   0.000333556982 -0.000142893319      0.316091424     0.928790557
12.662436            0.313162947      0.92969314   0.000334094521 -0.000143308638   0.000334094521 -0.000143308637       0.31648745     0.928640331
12.662464            0.313560631     0.929543681    0.00033463307 -0.000143725217    0.00033463307 -0.000143725216      0.316883733     0.928489801
12.662492            0.313958573     0.929393916    0.00033517263 -0.000144143061    0.00033517263  -0.00014414306      0.317280272     0.928338966
12.66252             0.314356773     0.929243847   0.000335713205 -0.000144562175   0.000335713205 -0.000144562174      0.317677068     0.928187826
12.662548            0.314755231      0.92909347   0.000336254796 -0.000144982563   0.000336254796 -0.000144982562       0.31807412     0.928036379
12.662576            0.315153947     0.928942788   0.000336797405  -0.00014540423   0.000336797405 -0.000145404229      0.318471431     0.927884626
12.662604            0.315552923     0.928791797   0.000337341034 -0.000145827179   0.000337341034 -0.000145827178      0.318868998     0.927732565
12.662632            0.315952157     0.928640499   0.000337885686 -0.000146251415   0.000337885686 -0.000146251414      0.319266823     0.927580196
12.66266             0.316351651     0.928488892   0.000338431362 -0.000146676942   0.000338431362 -0.000146676941      0.319664907     0.927427518
12.662688            0.316751403     0.928336975   0.000338978064 -0.000147103765   0.000338978064 -0.000147103764      0.320063248     0.927274531
12.662716            0.317151416     0.928184749   0.000339525795 -0.000147531888   0.000339525795 -0.000147531886      0.320461848     0.927121234
12.662744            0.317551689     0.928032212   0.000340074557 -0.000147961315   0.000340074557 -0.000147961314      0.320860707     0.926967627
12.662772            0.317952222     0.927879364   0.000340624351 -0.000148392051   0.000340624351  -0.00014839205      0.321259825     0.926813708
12.6628              0.318353015     0.927726205    0.00034117518   -0.0001488241    0.00034117518 -0.000148824099      0.321659202     0.926659478
12.662828            0.318754069     0.927572732   0.000341727045 -0.000149257467   0.000341727045 -0.000149257466      0.322058838     0.926504935
12.662856            0.319155384     0.927418947    0.00034227995 -0.000149692156    0.00034227995 -0.000149692154      0.322458734     0.926350079
12.662884             0.31955696     0.927264848   0.000342833895 -0.000150128171   0.000342833895  -0.00015012817       0.32285889      0.92619491
12.662912            0.319958798     0.927110435   0.000343388883 -0.000150565517   0.000343388883 -0.000150565516      0.323259307     0.926039426
12.66294             0.320360897     0.926955706   0.000343944917 -0.000151004199   0.000343944917 -0.000151004198      0.323659983     0.925883627
12.662968            0.320763258     0.926800663   0.000344501997 -0.000151444221   0.000344501997  -0.00015144422      0.324060921     0.925727513
12.662996            0.321165882     0.926645302   0.000345060127 -0.000151885587   0.000345060127 -0.000151885586      0.324462119     0.925571082
12.663024            0.321568768     0.926489625   0.000345619309 -0.000152328303   0.000345619309 -0.000152328302      0.324863578     0.925414335
12.663052            0.321971916     0.926333631   0.000346179544 -0.000152772372   0.000346179544 -0.000152772371      0.325265299     0.925257269
12.66308             0.322375328     0.926177318   0.000346740834   -0.0001532178   0.000346740834 -0.000153217799      0.325667282     0.925099886
12.663108            0.322779003     0.926020686   0.000347303183  -0.00015366459   0.000347303183 -0.000153664589      0.326069527     0.924942184
12.663136            0.323182941     0.925863735   0.000347866591 -0.000154112748   0.000347866591 -0.000154112747      0.326472033     0.924784163
12.663164            0.323587142     0.925706464   0.000348431061 -0.000154562278   0.000348431061 -0.000154562277      0.326874802     0.924625821
12.663192            0.323991608     0.925548872   0.000348996595 -0.000155013185   0.000348996595 -0.000155013184      0.327277834     0.924467159
12.66322             0.324396338     0.925390958   0.000349563196 -0.000155465474   0.000349563196 -0.000155465472      0.327681129     0.924308175
12.663248            0.324801332     0.925232723   0.000350130865 -0.000155919148   0.000350130865 -0.000155919147      0.328084687     0.924148869
12.663276            0.325206591     0.925074164   0.000350699604 -0.000156374214   0.000350699604 -0.000156374212      0.328488508      0.92398924
12.663304            0.325612115     0.924915283   0.000351269416 -0.000156830674   0.000351269416 -0.000156830673      0.328892593     0.923829288
12.663332            0.326017904     0.924756077   0.000351840303 -0.000157288536   0.000351840303 -0.000157288535      0.329296942     0.923669012
12.66336             0.326423959     0.924596546   0.000352412266 -0.000157747802   0.000352412266 -0.000157747801      0.329701555     0.923508411
12.663388            0.326830279      0.92443669   0.000352985309 -0.000158208478   0.000352985309 -0.000158208477      0.330106433     0.923347485
12.663416            0.327236865     0.924276508   0.000353559433 -0.000158670569   0.000353559433 -0.000158670568      0.330511575     0.923186233
12.663444            0.327643717        0.924116   0.000354134641  -0.00015913408   0.000354134641 -0.000159134079      0.330916982     0.923024654
12.663472            0.328050836     0.923955164   0.000354710934 -0.000159599015   0.000354710934 -0.000159599013      0.331322654     0.922862747
12.6635              0.328458221     0.923793999   0.000355288314 -0.000160065379   0.000355288314 -0.000160065377      0.331728592     0.922700513
12.663528            0.328865873     0.923632506   0.000355866785 -0.000160533177   0.000355866785 -0.000160533175      0.332134795     0.922537949
12.663556            0.329273793     0.923470684   0.000356446348 -0.000161002414   0.000356446348 -0.000161002412      0.332541264     0.922375057
12.663584            0.329681979     0.923308532   0.000357027005 -0.000161473094   0.000357027005 -0.000161473093         0.332948     0.922211834
12.663612            0.330090434     0.923146048   0.000357608758 -0.000161945224   0.000357608758 -0.000161945223      0.333355002     0.922048281
12.66364             0.330499156     0.922983234    0.00035819161 -0.000162418807    0.00035819161 -0.000162418806       0.33376227     0.921884396
12.663668            0.330908147     0.922820087   0.000358775563 -0.000162893849   0.000358775563 -0.000162893848      0.334169806     0.921720179
12.663696            0.331317406     0.922656607   0.000359360618 -0.000163370355   0.000359360618 -0.000163370354      0.334577608     0.921555629
12.663724            0.331726934     0.922492794   0.000359946779 -0.000163848329   0.000359946779 -0.000163848328      0.334985678     0.921390746
12.663752             0.33213673     0.922328647   0.000360534047 -0.000164327777   0.000360534047 -0.000164327776      0.335394016     0.921225528
12.66378             0.332546796     0.922164165   0.000361122425 -0.000164808704   0.000361122425 -0.000164808703      0.335802622     0.921059976
12.663808            0.332957131     0.921999347   0.000361711915 -0.000165291115   0.000361711915 -0.000165291114      0.336211495     0.920894088
12.663836            0.333367736     0.921834193   0.000362302518 -0.000165775014   0.000362302518 -0.000165775013      0.336620638     0.920727864
12.663864            0.333778611     0.921668702   0.000362894238 -0.000166260408   0.000362894238 -0.000166260407      0.337030049     0.920561302
12.663892            0.334189756     0.921502873   0.000363487076   -0.0001667473   0.000363487076 -0.000166747299      0.337439729     0.920394404
12.66392             0.334601172     0.921336706   0.000364081035 -0.000167235697   0.000364081035 -0.000167235696      0.337849678     0.920227167
12.663948            0.335012858       0.9211702   0.000364676117 -0.000167725603   0.000364676117 -0.000167725602      0.338259896      0.92005959
12.663976            0.335424815     0.921003354   0.000365272323 -0.000168217024   0.000365272323 -0.000168217023      0.338670384     0.919891675
12.664004            0.335837044     0.920836168   0.000365869657 -0.000168709965   0.000365869657 -0.000168709963      0.339081143     0.919723418
12.664032            0.336249544     0.920668641   0.000366468121  -0.00016920443   0.000366468121 -0.000169204429      0.339492171     0.919554821
12.66406             0.336662315     0.920500771   0.000367067716 -0.000169700426   0.000367067716 -0.000169700425       0.33990347     0.919385882
12.664088            0.337075359     0.920332559   0.000367668446 -0.000170197957   0.000367668446 -0.000170197956      0.340315039       0.9192166
12.664116            0.337488675     0.920164004   0.000368270311 -0.000170697029   0.000368270311 -0.000170697028       0.34072688     0.919046974
12.664144            0.337902263     0.919995105   0.000368873315 -0.000171197647   0.000368873315 -0.000171197646      0.341138992     0.918877005
12.664172            0.338316124     0.919825861    0.00036947746 -0.000171699817    0.00036947746 -0.000171699815      0.341551375     0.918706692
12.6642              0.338730258     0.919656272   0.000370082748 -0.000172203543   0.000370082748 -0.000172203541       0.34196403     0.918536032
12.664228            0.339144666     0.919486337   0.000370689181 -0.000172708831   0.000370689181  -0.00017270883      0.342376957     0.918365027
12.664256            0.339559346     0.919316055   0.000371296762 -0.000173215686   0.000371296762 -0.000173215685      0.342790156     0.918193675
12.664284            0.339974301     0.919145425   0.000371905492 -0.000173724115   0.000371905492 -0.000173724114      0.343203628     0.918021975
12.664312             0.34038953     0.918974447   0.000372515375 -0.000174234122   0.000372515375  -0.00017423412      0.343617372     0.917849927
12.66434             0.340805033      0.91880312   0.000373126412 -0.000174745712   0.000373126412 -0.000174745711       0.34403139      0.91767753
12.664368             0.34122081     0.918631443   0.000373738605 -0.000175258892   0.000373738605 -0.000175258891      0.344445681     0.917504783
12.664396            0.341636862     0.918459415   0.000374351957 -0.000175773666   0.000374351957 -0.000175773665      0.344860245     0.917331685
12.664424            0.342053189     0.918287037   0.000374966471  -0.00017629004   0.000374966471 -0.000176290039      0.345275083     0.917158237
12.664452            0.342469792     0.918114306   0.000375582148 -0.000176808021   0.000375582148 -0.000176808019      0.345690195     0.916984436
12.66448              0.34288667     0.917941223   0.000376198991 -0.000177327612   0.000376198991 -0.000177327611      0.346105581     0.916810283
12.664508            0.343303824     0.917767786   0.000376817001  -0.00017784882   0.000376817001 -0.000177848819      0.346521242     0.916635776
12.664536            0.343721254     0.917593995   0.000377436183 -0.000178371651   0.000377436183 -0.000178371649      0.346937178     0.916460916
12.664564             0.34413896     0.917419849   0.000378056536 -0.000178896109   0.000378056536 -0.000178896108      0.347353389       0.9162857
12.664592            0.344556943     0.917245348   0.000378678065 -0.000179422201   0.000378678065   -0.0001794222      0.347769875     0.916110129
12.66462             0.344975203      0.91707049   0.000379300771 -0.000179949933   0.000379300771 -0.000179949931      0.348186637     0.915934201
12.664648             0.34539374     0.916895275   0.000379924657 -0.000180479309   0.000379924657 -0.000180479308      0.348603674     0.915757916
12.664676            0.345812554     0.916719702   0.000380549724 -0.000181010336   0.000380549724 -0.000181010335      0.349020988     0.915581273
12.664704            0.346231646     0.916543771   0.000381175976 -0.000181543019   0.000381175976 -0.000181543018      0.349438578     0.915404272
12.664732            0.346651015      0.91636748   0.000381803414 -0.000182077365   0.000381803414 -0.000182077364      0.349856444     0.915226911
12.66476             0.347070663     0.916190829   0.000382432041 -0.000182613378   0.000382432041 -0.000182613377      0.350274588      0.91504919
12.664788            0.347490589     0.916013817   0.000383061859 -0.000183151065   0.000383061859 -0.000183151064      0.350693008     0.914871109
12.664816            0.347910794     0.915836444    0.00038369287 -0.000183690432    0.00038369287 -0.000183690431      0.351111706     0.914692665
12.664844            0.348331278     0.915658708   0.000384325078 -0.000184231484   0.000384325078 -0.000184231483      0.351530682     0.914513859
12.664872            0.348752041     0.915480609   0.000384958483 -0.000184774227   0.000384958483 -0.000184774226      0.351949935      0.91433469
12.6649              0.349173083     0.915302146   0.000385593089 -0.000185318667   0.000385593089 -0.000185318666      0.352369467     0.914155157
12.664928            0.349594405     0.915123318   0.000386228898  -0.00018586481   0.000386228898 -0.000185864809      0.352789277      0.91397526
12.664956            0.350016007     0.914944124   0.000386865912 -0.000186412662   0.000386865912  -0.00018641266      0.353209366     0.913794997
12.664984            0.350437889     0.914764565   0.000387504134 -0.000186962228   0.000387504134 -0.000186962227      0.353629734     0.913614367
12.665012            0.350860052     0.914584638   0.000388143566 -0.000187513516   0.000388143566 -0.000187513515      0.354050381     0.913433371
12.66504             0.351282495     0.914404344    0.00038878421  -0.00018806653    0.00038878421 -0.000188066529      0.354471307     0.913252006
12.665068             0.35170522     0.914223681   0.000389426068 -0.000188621277   0.000389426068 -0.000188621276      0.354892513     0.913070274
12.665096            0.352128225     0.914042649   0.000390069144 -0.000189177763   0.000390069144 -0.000189177762      0.355313999     0.912888171
12.665124            0.352551512     0.913861246   0.000390713439 -0.000189735993   0.000390713439 -0.000189735992      0.355735765     0.912705699
12.665152            0.352975081     0.913679473   0.000391358955 -0.000190295975   0.000391358955 -0.000190295974      0.356157812     0.912522856
12.66518             0.353398932     0.913497328   0.000392005696 -0.000190857714   0.000392005696 -0.000190857713       0.35658014     0.912339641
12.665208            0.353823065      0.91331481   0.000392653663 -0.000191421216   0.000392653663 -0.000191421214      0.357002748     0.912156053
12.665236            0.354247481     0.913131919   0.000393302859 -0.000191986487   0.000393302859 -0.000191986486      0.357425638     0.911972093
12.665264            0.354672179     0.912948654   0.000393953286 -0.000192553534   0.000393953286 -0.000192553533      0.357848809     0.911787758
12.665292            0.355097161     0.912765015   0.000394604947 -0.000193122362   0.000394604947 -0.000193122361      0.358272263     0.911603048
12.66532             0.355522426     0.912580999   0.000395257844 -0.000193692979   0.000395257844 -0.000193692978      0.358695998     0.911417963
12.665348            0.355947974     0.912396607    0.00039591198  -0.00019426539    0.00039591198 -0.000194265388      0.359120015     0.911232501
12.665376            0.356373807     0.912211838   0.000396567356 -0.000194839601   0.000396567356   -0.0001948396      0.359544316     0.911046662
12.665404            0.356799923     0.912026691   0.000397223975 -0.000195415619   0.000397223975 -0.000195415618      0.359968899     0.910860445