! TOUCHSTONE file generated by CST MICROWAVE STUDIO
! Date and time: Wed Jul 31 18:27:42 2024
! Project name: WaveGuide_BPF-Ver4.1_U-shape_Ku_T3_C4_CWA_2.cst
! Parameters = {cavity_h=16; cavity_l0=10; cavity_l1=15.1642; cavity_l2=16.8524; cavity_l3=17.1145; cavity_l4=17.2289; cavity_l5=17.1573; cavity_l6=17.5844; cavity_r=2.5; cavity_screw_l=0.5; cavity_screw_r=1.5; cavity_w=8; iris_h00=0; iris_h01=8.8229; iris_h112=0; iris_h12=5.5948; iris_h211=3.6538; iris_h23=5.1884; iris_h310=3.9772; iris_h34=5.0823; iris_h45=4.92; iris_h49=4.6112; iris_h56=4.8034; iris_h58=4.4447; iris_h67=6.5933; iris_rx=0.1; iris_screw_l=0.5; iris_screw_r=1.5; iris_shift00=0; iris_shift112=0; iris_shift211=3.5; iris_shift310=0; iris_shift49=0; iris_shift58=3.5; iris_shift67=3.5; iris_tx=4.5; iris_tz=4.5; iris_w00=0; iris_w112=0; iris_w211=4; iris_w310=3.9772; iris_w49=4.6112; iris_w58=4; iris_w67=4; mesh_cavity=5; mesh_iris=7; mesh_screw=7; order=12; reset_all=0; sigma=4.8e+07}
! Header version: 2018
! Port assignment regex: !\s*Touchstone port\s*([0-9]+)\s*=\s*(CST MWS port|CST DS port)\s*([0-9]+|Zmin|Zmax)\s*\(\"(.*)\"\)(\s*mode\s*([0-9]+))?.*
! Touchstone port assignment:
! Touchstone port 1 = CST MWS port 1 ("")
! Touchstone port 2 = CST MWS port 2 ("")
# GHz S RI R 50
12.66                0.218202153     0.959861129    0.00019148337 -5.78452728e-05    0.00019148337 -5.78452726e-05      0.223413254     0.958722105
12.660028            0.218535301     0.959775385   0.000191754671 -5.80054388e-05   0.000191754671 -5.80054386e-05      0.223745838     0.958634625
12.660056            0.218868648      0.95968946   0.000192026429 -5.81660254e-05   0.000192026429 -5.81660252e-05      0.224078505     0.958546989
12.660084            0.219202192     0.959603354   0.000192298643  -5.8327038e-05   0.000192298643 -5.83270378e-05      0.224411301     0.958459187
12.660112             0.21953593     0.959517067   0.000192571311 -5.84884818e-05   0.000192571311 -5.84884816e-05      0.224744275     0.958371206
12.66014              0.21986986       0.9594306   0.000192844432 -5.86503621e-05   0.000192844433 -5.86503619e-05      0.225077472     0.958283037
12.660168            0.220203983     0.959343952   0.000193118008 -5.88126801e-05   0.000193118008 -5.88126799e-05      0.225410893     0.958194679
12.660196              0.2205383     0.959257122   0.000193392039 -5.89754345e-05   0.000193392039 -5.89754343e-05      0.225744506     0.958106138
12.660224            0.220872811      0.95917011   0.000193666528 -5.91386264e-05   0.000193666528 -5.91386262e-05      0.226078313     0.958017415
12.660252            0.221207516     0.959082916   0.000193941474 -5.93022572e-05   0.000193941474 -5.93022571e-05      0.226412313     0.957928509
12.66028             0.221542416     0.958995539    0.00019421688 -5.94663282e-05    0.00019421688  -5.9466328e-05      0.226746506     0.957839419
12.660308            0.221877511      0.95890798   0.000194492745 -5.96308405e-05   0.000194492745 -5.96308404e-05      0.227080893     0.957750146
12.660336            0.222212801     0.958820237    0.00019476907 -5.97957956e-05    0.00019476907 -5.97957954e-05      0.227415473      0.95766069
12.660364            0.222548286     0.958732311   0.000195045856 -5.99611946e-05   0.000195045857 -5.99611945e-05      0.227750247     0.957571049
12.660392            0.222883967     0.958644202   0.000195323105 -6.01270389e-05   0.000195323105 -6.01270388e-05      0.228085215     0.957481223
12.66042             0.223219842     0.958555908   0.000195600817 -6.02933298e-05   0.000195600817 -6.02933296e-05      0.228420378     0.957391213
12.660448            0.223555914      0.95846743   0.000195878993 -6.04600685e-05   0.000195878993 -6.04600683e-05      0.228755735     0.957301017
12.660476            0.223892182     0.958378766   0.000196157633 -6.06272564e-05   0.000196157633 -6.06272562e-05      0.229091286     0.957210636
12.660504            0.224228645     0.958289918   0.000196436739 -6.07948947e-05   0.000196436739 -6.07948945e-05      0.229427032      0.95712007
12.660532            0.224565305     0.958200885   0.000196716311 -6.09629848e-05   0.000196716311 -6.09629846e-05      0.229762973     0.957029317
12.66056             0.224902161     0.958111665   0.000196996351  -6.1131528e-05   0.000196996351 -6.11315278e-05      0.230099109     0.956938377
12.660588            0.225239214      0.95802226   0.000197276858 -6.13005256e-05   0.000197276859 -6.13005254e-05       0.23043544     0.956847251
12.660616            0.225576463     0.957932668   0.000197557835 -6.14699789e-05   0.000197557835 -6.14699787e-05      0.230771967     0.956755938
12.660644             0.22591391      0.95784289   0.000197839282 -6.16398893e-05   0.000197839282 -6.16398891e-05      0.231108689     0.956664438
12.660672            0.226251553     0.957752925   0.000198121199  -6.1810258e-05   0.000198121199 -6.18102578e-05      0.231445607     0.956572749
12.6607              0.226589394     0.957662772   0.000198403588 -6.19810865e-05   0.000198403588 -6.19810863e-05      0.231782721     0.956480873
12.660728            0.226927432     0.957572431   0.000198686449  -6.2152376e-05   0.000198686449 -6.21523759e-05      0.232120031     0.956388808
12.660756            0.227265668     0.957481903   0.000198969784  -6.2324128e-05   0.000198969784 -6.23241278e-05      0.232457538     0.956296555
12.660784            0.227604102     0.957391186   0.000199253593 -6.24963437e-05   0.000199253593 -6.24963435e-05      0.232795241     0.956204112
12.660812            0.227942734     0.957300281   0.000199537877 -6.26690245e-05   0.000199537877 -6.26690243e-05       0.23313314      0.95611148
12.66084             0.228281564     0.957209186   0.000199822637 -6.28421717e-05   0.000199822637 -6.28421715e-05      0.233471236     0.956018658
12.660868            0.228620592     0.957117902   0.000200107874 -6.30157868e-05   0.000200107874 -6.30157866e-05       0.23380953     0.955925647
12.660896            0.228959819     0.957026429   0.000200393588  -6.3189871e-05   0.000200393588 -6.31898709e-05       0.23414802     0.955832444
12.660924            0.229299244     0.956934766   0.000200679781 -6.33644259e-05   0.000200679781 -6.33644257e-05      0.234486708     0.955739052
12.660952            0.229638869     0.956842912   0.000200966454 -6.35394526e-05   0.000200966454 -6.35394524e-05      0.234825593     0.955645468
12.66098             0.229978692     0.956750867   0.000201253606 -6.37149527e-05   0.000201253607 -6.37149525e-05      0.235164676     0.955551692
12.661008            0.230318715     0.956658632    0.00020154124 -6.38909274e-05   0.000201541241 -6.38909272e-05      0.235503957     0.955457726
12.661036            0.230658937     0.956566205   0.000201829357 -6.40673782e-05   0.000201829357  -6.4067378e-05      0.235843436     0.955363566
12.661064            0.230999358     0.956473587   0.000202117956 -6.42443065e-05   0.000202117956 -6.42443063e-05      0.236183113     0.955269215
12.661092             0.23133998     0.956380776   0.000202407039 -6.44217136e-05   0.000202407039 -6.44217135e-05      0.236522989     0.955174671
12.66112             0.231680801     0.956287773   0.000202696607 -6.45996011e-05   0.000202696607 -6.45996009e-05      0.236863063     0.955079934
12.661148            0.232021823     0.956194578   0.000202986661 -6.47779702e-05   0.000202986661   -6.477797e-05      0.237203336     0.954985003
12.661176            0.232363045     0.956101189   0.000203277201 -6.49568223e-05   0.000203277201 -6.49568222e-05      0.237543808     0.954889879
12.661204            0.232704467     0.956007607   0.000203568228  -6.5136159e-05   0.000203568228 -6.51361588e-05      0.237884479      0.95479456
12.661232            0.233046091     0.955913832   0.000203859744 -6.53159816e-05   0.000203859744 -6.53159814e-05      0.238225349     0.954699047
12.66126             0.233387914     0.955819862    0.00020415175 -6.54962915e-05    0.00020415175 -6.54962913e-05      0.238566419      0.95460334
12.661288             0.23372994     0.955725698   0.000204444245 -6.56770902e-05   0.000204444245   -6.567709e-05      0.238907689     0.954507437
12.661316            0.234072166     0.955631339   0.000204737231  -6.5858379e-05   0.000204737232 -6.58583789e-05      0.239249158     0.954411339
12.661344            0.234414593     0.955536786    0.00020503071 -6.60401596e-05    0.00020503071 -6.60401594e-05      0.239590827     0.954315045
12.661372            0.234757223     0.955442036   0.000205324681 -6.62224332e-05   0.000205324681  -6.6222433e-05      0.239932697     0.954218555
12.6614              0.235100054     0.955347091   0.000205619146 -6.64052013e-05   0.000205619146 -6.64052011e-05      0.240274767     0.954121868
12.661428            0.235443087      0.95525195   0.000205914106 -6.65884654e-05   0.000205914106 -6.65884652e-05      0.240617037     0.954024985
12.661456            0.235786322     0.955156613   0.000206209561 -6.67722269e-05   0.000206209562 -6.67722267e-05      0.240959508     0.953927904
12.661484            0.236129759     0.955061078   0.000206505513 -6.69564873e-05   0.000206505513 -6.69564871e-05       0.24130218     0.953830626
12.661512            0.236473399     0.954965347   0.000206801963 -6.71412481e-05   0.000206801963 -6.71412479e-05      0.241645053      0.95373315
12.66154             0.236817242     0.954869417    0.00020709891 -6.73265106e-05    0.00020709891 -6.73265105e-05      0.241988128     0.953635476
12.661568            0.237161288     0.954773291   0.000207396357 -6.75122765e-05   0.000207396357 -6.75122764e-05      0.242331403     0.953537603
12.661596            0.237505536     0.954676965   0.000207694304 -6.76985472e-05   0.000207694304  -6.7698547e-05      0.242674881     0.953439531
12.661624            0.237849988     0.954580442   0.000207992753 -6.78853241e-05   0.000207992753  -6.7885324e-05       0.24301856      0.95334126
12.661652            0.238194643     0.954483719   0.000208291703 -6.80726088e-05   0.000208291703 -6.80726086e-05      0.243362441      0.95324279
12.66168             0.238539502     0.954386797   0.000208591156 -6.82604028e-05   0.000208591156 -6.82604026e-05      0.243706525     0.953144119
12.661708            0.238884565     0.954289676   0.000208891113 -6.84487074e-05   0.000208891113 -6.84487073e-05      0.244050811     0.953045248
12.661736            0.239229831     0.954192354   0.000209191575 -6.86375244e-05   0.000209191575 -6.86375242e-05      0.244395299     0.952946177
12.661764            0.239575302     0.954094832   0.000209492542  -6.8826855e-05   0.000209492542 -6.88268549e-05       0.24473999     0.952846904
12.661792            0.239920977      0.95399711   0.000209794016  -6.9016701e-05   0.000209794017 -6.90167008e-05      0.245084884      0.95274743
12.66182             0.240266857     0.953899186   0.000210095998 -6.92070637e-05   0.000210095998 -6.92070636e-05      0.245429981     0.952647754
12.661848            0.240612941     0.953801061   0.000210398489 -6.93979448e-05   0.000210398489 -6.93979446e-05      0.245775281     0.952547876
12.661876             0.24095923     0.953702735   0.000210701488 -6.95893457e-05   0.000210701488 -6.95893455e-05      0.246120785     0.952447796
12.661904            0.241305724     0.953604206   0.000211004998 -6.97812679e-05   0.000211004998 -6.97812677e-05      0.246466492     0.952347513
12.661932            0.241652424     0.953505475    0.00021130902 -6.99737131e-05    0.00021130902 -6.99737129e-05      0.246812403     0.952247026
12.66196             0.241999329     0.953406541   0.000211613553 -7.01666827e-05   0.000211613554 -7.01666825e-05      0.247158519     0.952146336
12.661988             0.24234644     0.953307403     0.0002119186 -7.03601783e-05     0.0002119186 -7.03601782e-05      0.247504838     0.952045442
12.662016            0.242693756     0.953208062   0.000212224161 -7.05542015e-05   0.000212224162 -7.05542013e-05      0.247851362     0.951944344
12.662044            0.243041279     0.953108518   0.000212530238 -7.07487538e-05   0.000212530238 -7.07487536e-05       0.24819809     0.951843042
12.662072            0.243389007     0.953008768    0.00021283683 -7.09438367e-05    0.00021283683 -7.09438366e-05      0.248545023     0.951741534
12.6621              0.243736942     0.952908815   0.000213143939 -7.11394519e-05   0.000213143939 -7.11394518e-05      0.248892161     0.951639821
12.662128            0.244085084     0.952808656   0.000213451566  -7.1335601e-05   0.000213451566 -7.13356008e-05      0.249239504     0.951537902
12.662156            0.244433432     0.952708292   0.000213759712 -7.15322854e-05   0.000213759712 -7.15322852e-05      0.249587052     0.951435777
12.662184            0.244781987     0.952607722   0.000214068378 -7.17295067e-05   0.000214068378 -7.17295066e-05      0.249934806     0.951333445
12.662212             0.24513075     0.952506946   0.000214377564 -7.19272667e-05   0.000214377565 -7.19272665e-05      0.250282765     0.951230907
12.66224              0.24547972     0.952405963   0.000214687273 -7.21255668e-05   0.000214687273 -7.21255666e-05       0.25063093     0.951128161
12.662268            0.245828897     0.952304774   0.000214997504 -7.23244087e-05   0.000214997504 -7.23244085e-05      0.250979301     0.951025208
12.662296            0.246178282     0.952203377   0.000215308259 -7.25237939e-05   0.000215308259 -7.25237937e-05      0.251327879     0.950922047
12.662324            0.246527875     0.952101773   0.000215619538 -7.27237241e-05   0.000215619538 -7.27237239e-05      0.251676662     0.950818678
12.662352            0.246877675     0.951999961   0.000215931343 -7.29242008e-05   0.000215931343 -7.29242007e-05      0.252025653       0.9507151
12.66238             0.247227684      0.95189794   0.000216243675 -7.31252258e-05   0.000216243675 -7.31252257e-05       0.25237485     0.950611313
12.662408            0.247577902     0.951795711   0.000216556534 -7.33268006e-05   0.000216556534 -7.33268005e-05      0.252724254     0.950507316
12.662436            0.247928328     0.951693273   0.000216869921 -7.35289269e-05   0.000216869922 -7.35289267e-05      0.253073865      0.95040311
12.662464            0.248278963     0.951590625   0.000217183838 -7.37316063e-05   0.000217183839 -7.37316061e-05      0.253423683     0.950298694
12.662492            0.248629807     0.951487767   0.000217498286 -7.39348404e-05   0.000217498286 -7.39348402e-05      0.253773709     0.950194067
12.66252              0.24898086     0.951384699   0.000217813265 -7.41386309e-05   0.000217813265 -7.41386307e-05      0.254123943     0.950089229
12.662548            0.249332123      0.95128142   0.000218128776 -7.43429794e-05   0.000218128776 -7.43429792e-05      0.254474384     0.949984179
12.662576            0.249683595     0.951177931   0.000218444821 -7.45478876e-05   0.000218444821 -7.45478874e-05      0.254825034     0.949878918
12.662604            0.250035277      0.95107423     0.0002187614 -7.47533572e-05     0.0002187614  -7.4753357e-05      0.255175892     0.949773445
12.662632            0.250387169     0.950970317   0.000219078514 -7.49593897e-05   0.000219078514 -7.49593896e-05      0.255526958      0.94966776
12.66266             0.250739271     0.950866193   0.000219396165  -7.5165987e-05   0.000219396165 -7.51659869e-05      0.255878233     0.949561861
12.662688            0.251091583     0.950761855   0.000219714353 -7.53731507e-05   0.000219714353 -7.53731505e-05      0.256229717      0.94945575
12.662716            0.251444106     0.950657305   0.000220033079 -7.55808824e-05   0.000220033079 -7.55808822e-05      0.256581409     0.949349425
12.662744             0.25179684     0.950552542   0.000220352344 -7.57891839e-05   0.000220352345 -7.57891837e-05      0.256933311     0.949242885
12.662772            0.252149784     0.950447565    0.00022067215 -7.59980568e-05    0.00022067215 -7.59980566e-05      0.257285422     0.949136132
12.6628               0.25250294     0.950342374   0.000220992497 -7.62075028e-05   0.000220992497 -7.62075026e-05      0.257637743     0.949029164
12.662828            0.252856307     0.950236968   0.000221313386 -7.64175237e-05   0.000221313386 -7.64175235e-05      0.257990274      0.94892198
12.662856            0.253209885     0.950131348   0.000221634819 -7.66281212e-05   0.000221634819  -7.6628121e-05      0.258343014     0.948814581
12.662884            0.253563675     0.950025512   0.000221956795 -7.68392969e-05   0.000221956795 -7.68392967e-05      0.258695965     0.948706966
12.662912            0.253917677     0.949919461   0.000222279317 -7.70510527e-05   0.000222279317 -7.70510525e-05      0.259049125     0.948599135
12.66294             0.254271891     0.949813194   0.000222602385 -7.72633901e-05   0.000222602385   -7.726339e-05      0.259402497     0.948491087
12.662968            0.254626317      0.94970671   0.000222926001 -7.74763111e-05   0.000222926001 -7.74763109e-05      0.259756079     0.948382823
12.662996            0.254980956      0.94960001   0.000223250164 -7.76898172e-05   0.000223250164 -7.76898171e-05      0.260109872      0.94827434
12.663024            0.255335807     0.949493092   0.000223574877 -7.79039103e-05   0.000223574877 -7.79039102e-05      0.260463876      0.94816564
12.663052            0.255690871     0.949385957    0.00022390014 -7.81185921e-05    0.00022390014  -7.8118592e-05      0.260818091     0.948056721
12.66308             0.256046148     0.949278604   0.000224225954 -7.83338644e-05   0.000224225954 -7.83338642e-05      0.261172518     0.947947584
12.663108            0.256401638     0.949171033    0.00022455232 -7.85497289e-05   0.000224552321 -7.85497287e-05      0.261527156     0.947838228
12.663136            0.256757342     0.949063243    0.00022487924 -7.87661874e-05    0.00022487924 -7.87661872e-05      0.261882006     0.947728652
12.663164            0.257113259     0.948955233   0.000225206714 -7.89832417e-05   0.000225206714 -7.89832415e-05      0.262237068     0.947618857
12.663192             0.25746939     0.948847005   0.000225534744 -7.92008935e-05   0.000225534744 -7.92008933e-05      0.262592343     0.947508841
12.66322             0.257825735     0.948738556   0.000225863329 -7.94191446e-05   0.000225863329 -7.94191445e-05       0.26294783     0.947398604
12.663248            0.258182295     0.948629887   0.000226192472 -7.96379969e-05   0.000226192472 -7.96379967e-05      0.263303529     0.947288147
12.663276            0.258539068     0.948520997   0.000226522173 -7.98574521e-05   0.000226522173 -7.98574519e-05      0.263659441     0.947177468
12.663304            0.258896056     0.948411886   0.000226852434  -8.0077512e-05   0.000226852434 -8.00775119e-05      0.264015566     0.947066567
12.663332            0.259253259     0.948302553   0.000227183255 -8.02981785e-05   0.000227183255 -8.02981783e-05      0.264371905     0.946955444
12.66336             0.259610677     0.948192999   0.000227514637 -8.05194533e-05   0.000227514638 -8.05194532e-05      0.264728456     0.946844099
12.663388             0.25996831     0.948083222   0.000227846582 -8.07413384e-05   0.000227846582 -8.07413382e-05      0.265085221      0.94673253
12.663416            0.260326159     0.947973223   0.000228179091 -8.09638354e-05   0.000228179091 -8.09638352e-05        0.2654422     0.946620738
12.663444            0.260684223        0.947863   0.000228512163 -8.11869462e-05   0.000228512164 -8.11869461e-05      0.265799393     0.946508722
12.663472            0.261042502     0.947752554   0.000228845802 -8.14106728e-05   0.000228845802 -8.14106726e-05        0.2661568     0.946396482
12.6635              0.261400998     0.947641883   0.000229180007 -8.16350168e-05   0.000229180007 -8.16350167e-05      0.266514421     0.946284017
12.663528            0.261759709     0.947530989   0.000229514779 -8.18599803e-05   0.000229514779 -8.18599801e-05      0.266872257     0.946171327
12.663556            0.262118637     0.947419869   0.000229850121  -8.2085565e-05   0.000229850121 -8.20855648e-05      0.267230308     0.946058411
12.663584            0.262477782     0.947308525   0.000230186031 -8.23117728e-05   0.000230186031 -8.23117726e-05      0.267588573      0.94594527
12.663612            0.262837143     0.947196954   0.000230522513 -8.25386055e-05   0.000230522513 -8.25386053e-05      0.267947054     0.945831902
12.66364             0.263196721     0.947085158   0.000230859566 -8.27660651e-05   0.000230859566  -8.2766065e-05      0.268305749     0.945718307
12.663668            0.263556517     0.946973135   0.000231197192 -8.29941535e-05   0.000231197193 -8.29941533e-05      0.268664661     0.945604486
12.663696            0.263916529     0.946860886   0.000231535392 -8.32228724e-05   0.000231535393 -8.32228723e-05      0.269023788     0.945490437
12.663724            0.264276759     0.946748409   0.000231874167 -8.34522239e-05   0.000231874167 -8.34522238e-05       0.26938313     0.945376159
12.663752            0.264637207     0.946635704   0.000232213518 -8.36822098e-05   0.000232213518 -8.36822097e-05      0.269742689     0.945261654
12.66378             0.264997873     0.946522772   0.000232553446 -8.39128321e-05   0.000232553446 -8.39128319e-05      0.270102464      0.94514692
12.663808            0.265358756      0.94640961   0.000232893952 -8.41440925e-05   0.000232893952 -8.41440924e-05      0.270462456     0.945031956
12.663836            0.265719858      0.94629622   0.000233235037 -8.43759932e-05   0.000233235037  -8.4375993e-05      0.270822664     0.944916763
12.663864            0.266081179     0.946182601   0.000233576702 -8.46085359e-05   0.000233576702 -8.46085357e-05      0.271183089      0.94480134
12.663892            0.266442718     0.946068751   0.000233918948 -8.48417227e-05   0.000233918948 -8.48417225e-05      0.271543731     0.944685686
12.66392             0.266804476     0.945954672   0.000234261777 -8.50755554e-05   0.000234261777 -8.50755552e-05       0.27190459     0.944569801
12.663948            0.267166453     0.945840362   0.000234605189  -8.5310036e-05   0.000234605189 -8.53100358e-05      0.272265667     0.944453685
12.663976             0.26752865      0.94572582   0.000234949185 -8.55451665e-05   0.000234949185 -8.55451663e-05      0.272626961     0.944337337
12.664004            0.267891066     0.945611048   0.000235293767 -8.57809488e-05   0.000235293767 -8.57809486e-05      0.272988473     0.944220758
12.664032            0.268253701     0.945496043   0.000235638936 -8.60173849e-05   0.000235638936 -8.60173847e-05      0.273350203     0.944103945
12.66406             0.268616557     0.945380806   0.000235984692 -8.62544767e-05   0.000235984692 -8.62544766e-05      0.273712152     0.943986899
12.664088            0.268979632     0.945265336   0.000236331036 -8.64922263e-05   0.000236331036 -8.64922262e-05      0.274074318     0.943869621
12.664116            0.269342928     0.945149633   0.000236677971 -8.67306356e-05   0.000236677971 -8.67306355e-05      0.274436704     0.943752108
12.664144            0.269706444     0.945033697   0.000237025496 -8.69697067e-05   0.000237025496 -8.69697065e-05      0.274799308      0.94363436
12.664172            0.270070181     0.944917526   0.000237373613 -8.72094414e-05   0.000237373613 -8.72094412e-05      0.275162131     0.943516379
12.6642              0.270434139     0.944801121   0.000237722323 -8.74498419e-05   0.000237722323 -8.74498417e-05      0.275525173     0.943398161
12.664228            0.270798318     0.944684481   0.000238071627 -8.76909101e-05   0.000238071628 -8.76909099e-05      0.275888435     0.943279709
12.664256            0.271162718     0.944567606   0.000238421527  -8.7932648e-05   0.000238421527 -8.79326478e-05      0.276251916      0.94316102
12.664284             0.27152734     0.944450494   0.000238772022 -8.81750577e-05   0.000238772022 -8.81750576e-05      0.276615617     0.943042095
12.664312            0.271892183     0.944333147   0.000239123115 -8.84181412e-05   0.000239123115 -8.84181411e-05      0.276979538     0.942922933
12.66434             0.272257249     0.944215563   0.000239474806 -8.86619006e-05   0.000239474807 -8.86619004e-05      0.277343679     0.942803533
12.664368            0.272622536     0.944097742   0.000239827097 -8.89063379e-05   0.000239827097 -8.89063377e-05       0.27770804     0.942683896
12.664396            0.272988046     0.943979683   0.000240179988 -8.91514551e-05   0.000240179989 -8.91514549e-05      0.278072623      0.94256402
12.664424            0.273353778     0.943861386   0.000240533481 -8.93972543e-05   0.000240533481 -8.93972541e-05      0.278437425     0.942443906
12.664452            0.273719732     0.943742851   0.000240887577 -8.96437375e-05   0.000240887577 -8.96437374e-05      0.278802449     0.942323553
12.66448              0.27408591     0.943624077   0.000241242277 -8.98909069e-05   0.000241242277 -8.98909068e-05      0.279167694      0.94220296
12.664508            0.274452311     0.943505064   0.000241597581 -9.01387646e-05   0.000241597581 -9.01387644e-05       0.27953316     0.942082127
12.664536            0.274818935     0.943385811   0.000241953492 -9.03873125e-05   0.000241953492 -9.03873123e-05      0.279898848     0.941961054
12.664564            0.275185782     0.943266318   0.000242310009 -9.06365529e-05   0.000242310009 -9.06365527e-05      0.280264758      0.94183974
12.664592            0.275552854     0.943146584   0.000242667135 -9.08864877e-05   0.000242667135 -9.08864875e-05       0.28063089     0.941718184
12.66462             0.275920149     0.943026609   0.000243024871 -9.11371191e-05   0.000243024871  -9.1137119e-05      0.280997243     0.941596387
12.664648            0.276287668     0.942906392   0.000243383216 -9.13884493e-05   0.000243383216 -9.13884492e-05      0.281363819     0.941474348
12.664676            0.276655411     0.942785934   0.000243742174 -9.16404803e-05   0.000243742174 -9.16404802e-05      0.281730618     0.941352066
12.664704             0.27702338     0.942665233   0.000244101744 -9.18932143e-05   0.000244101744 -9.18932142e-05       0.28209764      0.94122954
12.664732            0.277391572     0.942544289   0.000244461927 -9.21466534e-05   0.000244461928 -9.21466533e-05      0.282464884     0.941106772
12.66476              0.27775999     0.942423102   0.000244822726 -9.24007998e-05   0.000244822726 -9.24007996e-05      0.282832351     0.940983759
12.664788            0.278128633     0.942301671   0.000245184141 -9.26556556e-05   0.000245184141 -9.26556554e-05      0.283200042     0.940860502
12.664816            0.278497501     0.942179996   0.000245546173 -9.29112229e-05   0.000245546173 -9.29112227e-05      0.283567957     0.940736999
12.664844            0.278866594     0.942058076   0.000245908823 -9.31675039e-05   0.000245908823 -9.31675038e-05      0.283936095     0.940613252
12.664872            0.279235914     0.941935911   0.000246272092 -9.34245009e-05   0.000246272092 -9.34245007e-05      0.284304457     0.940489258
12.6649              0.279605459       0.9418135   0.000246635982 -9.36822159e-05   0.000246635982 -9.36822158e-05      0.284673044     0.940365019
12.664928            0.279975231     0.941690844   0.000247000494 -9.39406512e-05   0.000247000494  -9.3940651e-05      0.285041854     0.940240532
12.664956            0.280345228      0.94156794   0.000247365628  -9.4199809e-05   0.000247365628 -9.41998088e-05       0.28541089     0.940115799
12.664984            0.280715453      0.94144479   0.000247731386 -9.44596914e-05   0.000247731386 -9.44596912e-05       0.28578015     0.939990817
12.665012            0.281085904     0.941321392   0.000248097769 -9.47203007e-05   0.000248097769 -9.47203005e-05      0.286149635     0.939865588
12.66504             0.281456582     0.941197747   0.000248464778  -9.4981639e-05   0.000248464779 -9.49816389e-05      0.286519345      0.93974011
12.665068            0.281827487     0.941073853   0.000248832415 -9.52437087e-05   0.000248832415 -9.52437085e-05       0.28688928     0.939614383
12.665096             0.28219862      0.94094971    0.00024920068 -9.55065119e-05    0.00024920068 -9.55065117e-05      0.287259442     0.939488406
12.665124             0.28256998     0.940825317   0.000249569574 -9.57700509e-05   0.000249569574 -9.57700507e-05      0.287629829     0.939362179
12.665152            0.282941568     0.940700675   0.000249939099 -9.60343279e-05   0.000249939099 -9.60343277e-05      0.288000441     0.939235702
12.66518             0.283313384     0.940575783   0.000250309256 -9.62993452e-05   0.000250309256  -9.6299345e-05      0.288371281     0.939108974
12.665208            0.283685428      0.94045064   0.000250680046  -9.6565105e-05   0.000250680046 -9.65651048e-05      0.288742346     0.938981995
12.665236            0.284057701     0.940325246    0.00025105147 -9.68316096e-05    0.00025105147 -9.68316095e-05      0.289113638     0.938854764
12.665264            0.284430202       0.9401996   0.000251423529 -9.70988613e-05   0.000251423529 -9.70988612e-05      0.289485157      0.93872728
12.665292            0.284802932     0.940073702   0.000251796225 -9.73668624e-05   0.000251796225 -9.73668622e-05      0.289856903     0.938599544
12.66532             0.285175891     0.939947552   0.000252169558 -9.76356151e-05   0.000252169558  -9.7635615e-05      0.290228876     0.938471554
12.665348            0.285549079     0.939821148    0.00025254353 -9.79051218e-05    0.00025254353 -9.79051217e-05      0.290601076     0.938343311
12.665376            0.285922497     0.939694491   0.000252918141 -9.81753848e-05   0.000252918141 -9.81753846e-05      0.290973505     0.938214813
12.665404            0.286296144     0.939567579   0.000253293394 -9.84464063e-05   0.000253293394 -9.84464061e-05       0.29134616     0.938086061