! TOUCHSTONE file generated by CST MICROWAVE STUDIO
! Date and time: Wed Jul 31 18:34:13 2024
! Project name: WaveGuide_BPF-Ver4.1_U-shape_Ku_T3_C4_CWA_2.cst
! Parameters = {cavity_h=16; cavity_l0=10; cavity_l1=15.2322; cavity_l2=16.8791; cavity_l3=17.1102; cavity_l4=17.31; cavity_l5=17.1433; cavity_l6=17.5803; cavity_r=2.5; cavity_screw_l=0.5; cavity_screw_r=1.5; cavity_w=8; iris_h00=0; iris_h01=8.8358; iris_h112=0; iris_h12=5.6099; iris_h211=3.6528; iris_h23=5.1991; iris_h310=3.9645; iris_h34=5.0737; iris_h45=4.941; iris_h49=4.6261; iris_h56=4.7983; iris_h58=4.4431; iris_h67=6.5893; iris_rx=0.1; iris_screw_l=0.5; iris_screw_r=1.5; iris_shift00=0; iris_shift112=0; iris_shift211=3.5; iris_shift310=0; iris_shift49=0; iris_shift58=3.5; iris_shift67=3.5; iris_tx=4.5; iris_tz=4.5; iris_w00=0; iris_w112=0; iris_w211=4; iris_w310=3.9645; iris_w49=4.6261; iris_w58=4; iris_w67=4; mesh_cavity=5; mesh_iris=7; mesh_screw=7; order=12; reset_all=0; sigma=4.8e+07}
! Header version: 2018
! Port assignment regex: !\s*Touchstone port\s*([0-9]+)\s*=\s*(CST MWS port|CST DS port)\s*([0-9]+|Zmin|Zmax)\s*\(\"(.*)\"\)(\s*mode\s*([0-9]+))?.*
! Touchstone port assignment:
! Touchstone port 1 = CST MWS port 1 ("")
! Touchstone port 2 = CST MWS port 2 ("")
# GHz S RI R 50
12.66                0.556258719     0.795468544   0.000448549582 -0.000374595567   0.000448549581 -0.000374595567      0.559370241     0.793389865
12.660028            0.556790944     0.795061618   0.000449137903 -0.000375639609   0.000449137903 -0.000375639609      0.559900734     0.792981197
12.660056            0.557323456     0.794653871   0.000449726673 -0.000376686716   0.000449726673 -0.000376686716      0.560431437     0.792571759
12.660084            0.557856233     0.794245317   0.000450315895 -0.000377736896   0.000450315895 -0.000377736896      0.560962358     0.792161543
12.660112            0.558389253     0.793835968   0.000450905572 -0.000378790157   0.000450905571 -0.000378790157      0.561493508     0.791750541
12.66014             0.558922494     0.793425838   0.000451495705 -0.000379846507   0.000451495705 -0.000379846507      0.562024894     0.791338745
12.660168            0.559455954     0.793014926   0.000452086294 -0.000380905956   0.000452086294 -0.000380905956      0.562556519     0.790926154
12.660196            0.559989649     0.792603219   0.000452677333 -0.000381968514   0.000452677332 -0.000381968514      0.563088373     0.790512769
12.660224            0.560523578     0.792190716   0.000453268819 -0.000383034192   0.000453268818 -0.000383034192      0.563620457     0.790098589
12.660252            0.561057741     0.791777416   0.000453860749 -0.000384102997   0.000453860749 -0.000384102998      0.564152772     0.789683614
12.66028             0.561592137     0.791363317   0.000454453123 -0.000385174942   0.000454453123 -0.000385174942      0.564685315      0.78926784
12.660308            0.562126767     0.790948418   0.000455045937 -0.000386250034   0.000455045937 -0.000386250034      0.565218088     0.788851267
12.660336            0.562661629     0.790532716    0.00045563919 -0.000387328284   0.000455639189 -0.000387328284      0.565751089     0.788433894
12.660364            0.563196724      0.79011621   0.000456232878 -0.000388409702   0.000456232878 -0.000388409702      0.566284319     0.788015717
12.660392            0.563732051     0.789698899      0.000456827 -0.000389494297   0.000456826999 -0.000389494297      0.566817776     0.787596736
12.66042             0.564267609      0.78928078   0.000457421553 -0.000390582079   0.000457421552 -0.000390582079      0.567351462      0.78717695
12.660448              0.5648034     0.788861853   0.000458016534 -0.000391673059   0.000458016534 -0.000391673059      0.567885374     0.786756356
12.660476            0.565339421     0.788442115   0.000458611942 -0.000392767245   0.000458611941 -0.000392767245      0.568419514     0.786334952
12.660504            0.565875673     0.788021565   0.000459207773 -0.000393864649   0.000459207773 -0.000393864649       0.56895388     0.785912738
12.660532            0.566412156     0.787600202   0.000459804026 -0.000394965279   0.000459804026 -0.000394965279      0.569488473     0.785489712
12.66056             0.566948868     0.787178023   0.000460400698 -0.000396069146   0.000460400698 -0.000396069146      0.570023291     0.785065872
12.660588            0.567485811     0.786755026   0.000460997786  -0.00039717626   0.000460997786 -0.000397176261      0.570558335     0.784641215
12.660616            0.568022983     0.786331212   0.000461595288 -0.000398286631   0.000461595287 -0.000398286632      0.571093605     0.784215742
12.660644            0.568560384     0.785906577   0.000462193201  -0.00039940027     0.0004621932  -0.00039940027      0.571629099      0.78378945
12.660672            0.569098013     0.785481119   0.000462791522 -0.000400517185   0.000462791522 -0.000400517186      0.572164817     0.783362336
12.6607              0.569635871     0.785054839    0.00046339025 -0.000401637388   0.000463390249 -0.000401637388       0.57270076     0.782934401
12.660728            0.570173957     0.784627732   0.000463989381 -0.000402760889    0.00046398938 -0.000402760889      0.573236926     0.782505642
12.660756            0.570712271     0.784199799   0.000464588912 -0.000403887697   0.000464588912 -0.000403887697      0.573773316     0.782076057
12.660784            0.571250812     0.783771037   0.000465188842 -0.000405017823   0.000465188842 -0.000405017823      0.574309929     0.781645644
12.660812            0.571789579     0.783341444   0.000465789167 -0.000406151278   0.000465789166 -0.000406151278      0.574846764     0.781214403
12.66084             0.572328573      0.78291102   0.000466389884 -0.000407288071   0.000466389884 -0.000407288071      0.575383822     0.780782331
12.660868            0.572867793     0.782479761   0.000466990992 -0.000408428213   0.000466990991 -0.000408428214      0.575921101     0.780349427
12.660896            0.573407239     0.782047667   0.000467592486 -0.000409571715   0.000467592485 -0.000409571715      0.576458602     0.779915689
12.660924            0.573946911     0.781614736   0.000468194364 -0.000410718586   0.000468194364 -0.000410718587      0.576996324     0.779481115
12.660952            0.574486807     0.781180966   0.000468796624 -0.000411868838   0.000468796624 -0.000411868838      0.577534266     0.779045703
12.66098             0.575026928     0.780746355   0.000469399263  -0.00041302248   0.000469399262 -0.000413022481      0.578072429     0.778609453
12.661008            0.575567272     0.780310901   0.000470002277 -0.000414179524   0.000470002276 -0.000414179524      0.578610811     0.778172361
12.661036            0.576107841     0.779874604   0.000470605663 -0.000415339979   0.000470605663 -0.000415339979      0.579149413     0.777734428
12.661064            0.576648633     0.779437461    0.00047120942 -0.000416503857    0.00047120942 -0.000416503857      0.579688234      0.77729565
12.661092            0.577189648     0.778999471   0.000471813544 -0.000417671167   0.000471813543 -0.000417671168      0.580227274     0.776856026
12.66112             0.577730886     0.778560631   0.000472418031 -0.000418841921    0.00047241803 -0.000418841922      0.580766532     0.776415554
12.661148            0.578272345      0.77812094   0.000473022879  -0.00042001613   0.000473022879  -0.00042001613      0.581306007     0.775974233
12.661176            0.578814027     0.777680396   0.000473628085 -0.000421193803   0.000473628084 -0.000421193803        0.5818457     0.775532061
12.661204             0.57935593     0.777238998   0.000474233646 -0.000422374952   0.000474233645 -0.000422374952       0.58238561     0.775089037
12.661232            0.579898053     0.776796744   0.000474839558 -0.000423559588   0.000474839558 -0.000423559588      0.582925737     0.774645157
12.66126             0.580440398     0.776353632   0.000475445819 -0.000424747721   0.000475445819 -0.000424747721      0.583466079     0.774200422
12.661288            0.580982962      0.77590966   0.000476052426 -0.000425939361   0.000476052425 -0.000425939362      0.584006638     0.773754828
12.661316            0.581525746     0.775464827   0.000476659374 -0.000427134521   0.000476659374 -0.000427134522      0.584547411     0.773308375
12.661344            0.582068749      0.77501913   0.000477266662 -0.000428333211   0.000477266661 -0.000428333211      0.585088399      0.77286106
12.661372            0.582611971     0.774572569   0.000477874286 -0.000429535442   0.000477874285 -0.000429535442      0.585629602     0.772412882
12.6614              0.583155411      0.77412514   0.000478482242 -0.000430741224   0.000478482241 -0.000430741225      0.586171019     0.771963839
12.661428            0.583699069     0.773676843   0.000479090527  -0.00043195057   0.000479090527  -0.00043195057      0.586712649     0.771513929
12.661456            0.584242945     0.773227676   0.000479699139 -0.000433163489   0.000479699138 -0.000433163489      0.587254492      0.77106315
12.661484            0.584787037     0.772777637   0.000480308073 -0.000434379993   0.000480308072 -0.000434379994      0.587796547     0.770611502
12.661512            0.585331347     0.772326724   0.000480917326 -0.000435600094   0.000480917326 -0.000435600094      0.588338815     0.770158981
12.66154             0.585875872     0.771874935   0.000481526896 -0.000436823801   0.000481526895 -0.000436823801      0.588881294     0.769705586
12.661568            0.586420613     0.771422269   0.000482136778 -0.000438051127   0.000482136777 -0.000438051127      0.589423984     0.769251316
12.661596            0.586965569     0.770968723   0.000482746969 -0.000439282082   0.000482746968 -0.000439282083      0.589966886     0.768796169
12.661624             0.58751074     0.770514297   0.000483357465 -0.000440516679   0.000483357465 -0.000440516679      0.590509997     0.768340142
12.661652            0.588056126     0.770058987   0.000483968264 -0.000441754927   0.000483968263 -0.000441754928      0.591053318     0.767883234
12.66168             0.588601725     0.769602793   0.000484579361 -0.000442996839   0.000484579361  -0.00044299684      0.591596849     0.767425444
12.661708            0.589147537     0.769145713   0.000485190753 -0.000444242426   0.000485190753 -0.000444242426      0.592140588     0.766966769
12.661736            0.589693562     0.768687744   0.000485802437 -0.000445491699   0.000485802437   -0.0004454917      0.592684536     0.766507207
12.661764              0.5902398     0.768228885   0.000486414408  -0.00044674467   0.000486414408  -0.00044674467      0.593228691     0.766046758
12.661792             0.59078625     0.767769134   0.000487026664  -0.00044800135   0.000487026664  -0.00044800135      0.593773054     0.765585418
12.66182             0.591332911     0.767308489     0.0004876392  -0.00044926175     0.0004876392 -0.000449261751      0.594317624     0.765123187
12.661848            0.591879783     0.766846949   0.000488252013 -0.000450525883   0.000488252012 -0.000450525883        0.5948624     0.764660062
12.661876            0.592426865     0.766384511   0.000488865099 -0.000451793759   0.000488865098 -0.000451793759      0.595407382     0.764196042
12.661904            0.592974158     0.765921174   0.000489478454 -0.000453065391   0.000489478453 -0.000453065391      0.595952569     0.763731124
12.661932             0.59352166     0.765456936   0.000490092074 -0.000454340789   0.000490092074 -0.000454340789      0.596497961     0.763265307
12.66196              0.59406937     0.764991795   0.000490705956 -0.000455619966   0.000490705956 -0.000455619967      0.597043558      0.76279859
12.661988             0.59461729     0.764525749   0.000491320096 -0.000456902934   0.000491320096 -0.000456902934      0.597589358      0.76233097
12.662016            0.595165417     0.764058797    0.00049193449 -0.000458189703   0.000491934489 -0.000458189703      0.598135362     0.761862445
12.662044            0.595713752     0.763590935   0.000492549133 -0.000459480287   0.000492549133 -0.000459480287      0.598681568     0.761393013
12.662072            0.596262293     0.763122164   0.000493164023 -0.000460774696   0.000493164022 -0.000460774696      0.599227977     0.760922674
12.6621              0.596811041      0.76265248   0.000493779154 -0.000462072942   0.000493779154 -0.000462072942      0.599774588     0.760451424
12.662128            0.597359995     0.762181882   0.000494394524 -0.000463375038   0.000494394523 -0.000463375038      0.600321399     0.759979262
12.662156            0.597909155     0.761710368   0.000495010127 -0.000464680995   0.000495010127 -0.000464680996      0.600868412     0.759506186
12.662184            0.598458519     0.761237936    0.00049562596 -0.000465990826    0.00049562596 -0.000465990826      0.601415625     0.759032195
12.662212            0.599008087     0.760764584   0.000496242019 -0.000467304542   0.000496242019 -0.000467304542      0.601963037     0.758557286
12.66224             0.599557859     0.760290311     0.0004968583 -0.000468622155   0.000496858299 -0.000468622155      0.602510648     0.758081458
12.662268            0.600107835     0.759815113   0.000497474797 -0.000469943678   0.000497474797 -0.000469943678      0.603058458     0.757604708
12.662296            0.600658013     0.759338991   0.000498091508 -0.000471269122   0.000498091508 -0.000471269122      0.603606466     0.757127035
12.662324            0.601208393     0.758861941   0.000498708428   -0.0004725985   0.000498708427   -0.0004725985      0.604154671     0.756648437
12.662352            0.601758975     0.758383961   0.000499325552 -0.000473931823   0.000499325552 -0.000473931824      0.604703073     0.756168911
12.66238             0.602309758     0.757905051   0.000499942877 -0.000475269105   0.000499942876 -0.000475269105      0.605251671     0.755688457
12.662408            0.602860741     0.757425207   0.000500560397 -0.000476610357   0.000500560397 -0.000476610357      0.605800465     0.755207072
12.662436            0.603411924     0.756944428   0.000501178109 -0.000477955592   0.000501178109 -0.000477955592      0.606349454     0.754724755
12.662464            0.603963307     0.756462713   0.000501796008 -0.000479304822   0.000501796008 -0.000479304822      0.606898638     0.754241502
12.662492            0.604514888     0.755980058    0.00050241409 -0.000480658059   0.000502414089 -0.000480658059      0.607448016     0.753757314
12.66252             0.605066668     0.755496462    0.00050303235 -0.000482015315   0.000503032349 -0.000482015315      0.607997587     0.753272186
12.662548            0.605618645     0.755011924   0.000503650783 -0.000483376604   0.000503650782 -0.000483376604      0.608547351     0.752786119
12.662576            0.606170819     0.754526441   0.000504269385 -0.000484741938   0.000504269385 -0.000484741938      0.609097308     0.752299109
12.662604             0.60672319     0.754040011   0.000504888152 -0.000486111328   0.000504888152 -0.000486111329      0.609647456     0.751811154
12.662632            0.607275756     0.753552633   0.000505507079 -0.000487484789   0.000505507079 -0.000487484789      0.610197795     0.751322254
12.66266             0.607828518     0.753064304   0.000506126161 -0.000488862332    0.00050612616 -0.000488862332      0.610748324     0.750832406
12.662688            0.608381474     0.752575022   0.000506745393  -0.00049024397   0.000506745393  -0.00049024397      0.611299043     0.750341607
12.662716            0.608934625     0.752084786   0.000507364771 -0.000491629715   0.000507364771 -0.000491629715      0.611849952     0.749849857
12.662744            0.609487969     0.751593593    0.00050798429 -0.000493019581    0.00050798429 -0.000493019581      0.612401049     0.749357152
12.662772            0.610041506     0.751101442   0.000508603945  -0.00049441358   0.000508603945  -0.00049441358      0.612952334     0.748863492
12.6628              0.610595235     0.750608331   0.000509223731 -0.000495811725   0.000509223731 -0.000495811725      0.613503807     0.748368874
12.662828            0.611149156     0.750114257   0.000509843644 -0.000497214028   0.000509843643 -0.000497214028      0.614055466     0.747873296
12.662856            0.611703268     0.749619219   0.000510463678 -0.000498620503   0.000510463677 -0.000498620503      0.614607312     0.747376756
12.662884             0.61225757     0.749123214   0.000511083828 -0.000500031163   0.000511083827 -0.000500031163      0.615159343     0.746879252
12.662912            0.612812062     0.748626241    0.00051170409  -0.00050144602   0.000511704089  -0.00050144602      0.615711558     0.746380783
12.66294             0.613366743     0.748128297   0.000512324458 -0.000502865087   0.000512324457 -0.000502865088      0.616263958     0.745881346
12.662968            0.613921613     0.747629381   0.000512944927 -0.000504288378   0.000512944927 -0.000504288379      0.616816542     0.745380939
12.662996             0.61447667     0.747129491   0.000513565493 -0.000505715906   0.000513565492 -0.000505715906      0.617369309     0.744879561
12.663024            0.615031915     0.746628624   0.000514186149 -0.000507147683   0.000514186149 -0.000507147683      0.617922258     0.744377208
12.663052            0.615587346     0.746126779   0.000514806892 -0.000508583723   0.000514806891 -0.000508583723      0.618475388     0.743873881
12.66308             0.616142963     0.745623953   0.000515427715 -0.000510024039   0.000515427714 -0.000510024039        0.6190287     0.743369575
12.663108            0.616698766     0.745120145   0.000516048613 -0.000511468643   0.000516048612 -0.000511468644      0.619582191      0.74286429
12.663136            0.617254753     0.744615352   0.000516669581 -0.000512917551    0.00051666958 -0.000512917551      0.620135863     0.742358023
12.663164            0.617810924     0.744109573   0.000517290614 -0.000514370774   0.000517290613 -0.000514370774      0.620689713     0.741850772
12.663192            0.618367278     0.743602805   0.000517911706 -0.000515828326   0.000517911705 -0.000515828326      0.621243742     0.741342535
12.66322             0.618923815     0.743095046   0.000518532851  -0.00051729022   0.000518532851 -0.000517290221      0.621797948     0.740833311
12.663248            0.619480534     0.742586295   0.000519154045 -0.000518756471   0.000519154045 -0.000518756471      0.622352331     0.740323097
12.663276            0.620037434     0.742076549   0.000519775282  -0.00052022709   0.000519775281  -0.00052022709      0.622906891     0.739811891
12.663304            0.620594514     0.741565806   0.000520396556 -0.000521702093   0.000520396555 -0.000521702093      0.623461625     0.739299691
12.663332            0.621151775     0.741054064   0.000521017861 -0.000523181491   0.000521017861 -0.000523181492      0.624016535     0.738786496
12.66336             0.621709214     0.740541321   0.000521639193   -0.0005246653   0.000521639192   -0.0005246653      0.624571619     0.738272302
12.663388            0.622266832     0.740027575   0.000522260544 -0.000526153532   0.000522260544 -0.000526153532      0.625126876     0.737757108
12.663416            0.622824628     0.739512824    0.00052288191 -0.000527646201    0.00052288191 -0.000527646202      0.625682306     0.737240912
12.663444            0.623382601     0.738997066   0.000523503285 -0.000529143322   0.000523503284 -0.000529143322      0.626237908     0.736723712
12.663472             0.62394075     0.738480299   0.000524124662 -0.000530644907   0.000524124662 -0.000530644907      0.626793681     0.736205506
12.6635              0.624499075      0.73796252   0.000524746037  -0.00053215097   0.000524746036  -0.00053215097      0.627349625     0.735686291
12.663528            0.625057574     0.737443728   0.000525367403 -0.000533661525   0.000525367402 -0.000533661526      0.627905739     0.735166066
12.663556            0.625616248      0.73692392   0.000525988753 -0.000535176587   0.000525988753 -0.000535176587      0.628462021     0.734644829
12.663584            0.626175095     0.736403095   0.000526610083 -0.000536696169   0.000526610083 -0.000536696169      0.629018472     0.734122577
12.663612            0.626734115     0.735881249   0.000527231386 -0.000538220284   0.000527231386 -0.000538220284      0.629575091     0.733599309
12.66364             0.627293307     0.735358382   0.000527852657 -0.000539748948   0.000527852656 -0.000539748948      0.630131876     0.733075021
12.663668             0.62785267     0.734834491   0.000528473888 -0.000541282173   0.000528473887 -0.000541282173      0.630688828     0.732549713
12.663696            0.628412204     0.734309574   0.000529095073 -0.000542819975   0.000529095073 -0.000542819975      0.631245944     0.732023382
12.663724            0.628971907     0.733783628   0.000529716207 -0.000544362366   0.000529716207 -0.000544362366      0.631803226     0.731496026
12.663752            0.629531779     0.733256652   0.000530337284 -0.000545909362   0.000530337283 -0.000545909362      0.632360671     0.730967643
12.66378              0.63009182     0.732728643   0.000530958296 -0.000547460977   0.000530958296 -0.000547460977      0.632918279     0.730438231
12.663808            0.630652028       0.7321996   0.000531579238 -0.000549017224   0.000531579238 -0.000549017224      0.633476049     0.729907787
12.663836            0.631212402      0.73166952   0.000532200103 -0.000550578118   0.000532200103 -0.000550578118      0.634033981      0.72937631
12.663864            0.631772943     0.731138401   0.000532820885 -0.000552143673   0.000532820884 -0.000552143673      0.634592074     0.728843797
12.663892            0.632333648      0.73060624   0.000533441577 -0.000553713904   0.000533441576 -0.000553713905      0.635150326     0.728310246
12.66392             0.632894518     0.730073037   0.000534062172 -0.000555288826   0.000534062172 -0.000555288826      0.635708738     0.727775656
12.663948            0.633455551     0.729538788   0.000534682665 -0.000556868451   0.000534682664 -0.000556868452      0.636267308     0.727240023
12.663976            0.634016747     0.729003491   0.000535303048 -0.000558452796   0.000535303047 -0.000558452797      0.636826035     0.726703346
12.664004            0.634578105     0.728467144   0.000535923314 -0.000560041875   0.000535923314 -0.000560041875      0.637384919     0.726165623
12.664032            0.635139624     0.727929746   0.000536543458 -0.000561635701   0.000536543457 -0.000561635701      0.637943959     0.725626851
12.66406             0.635701303     0.727391293   0.000537163472  -0.00056323429   0.000537163471 -0.000563234291      0.638503154     0.725087029
12.664088            0.636263141     0.726851784   0.000537783349 -0.000564837657   0.000537783348 -0.000564837657      0.639062503     0.724546154
12.664116            0.636825139     0.726311216   0.000538403082 -0.000566445816   0.000538403082 -0.000566445816      0.639622005     0.724004223
12.664144            0.637387294     0.725769587   0.000539022665 -0.000568058782   0.000539022665 -0.000568058782       0.64018166     0.723461236
12.664172            0.637949606     0.725226896   0.000539642091 -0.000569676569    0.00053964209 -0.000569676569      0.640741467     0.722917189
12.6642              0.638512074     0.724683139   0.000540261352 -0.000571299193   0.000540261351 -0.000571299193      0.641301425      0.72237208
12.664228            0.639074698     0.724138314   0.000540880441 -0.000572926668    0.00054088044 -0.000572926668      0.641861533     0.721825908
12.664256            0.639637476      0.72359242   0.000541499352 -0.000574559009   0.000541499351 -0.000574559009      0.642421789      0.72127867
12.664284            0.640200408     0.723045455   0.000542118076 -0.000576196231   0.000542118076 -0.000576196232      0.642982195     0.720730364
12.664312            0.640763492     0.722497415   0.000542736608  -0.00057783835   0.000542736607  -0.00057783835      0.643542747     0.720180987
12.66434             0.641326728     0.721948298   0.000543354939  -0.00057948538   0.000543354938 -0.000579485381      0.644103446     0.719630537
12.664368            0.641890116     0.721398103   0.000543973062 -0.000581137337   0.000543973061 -0.000581137337      0.644664291     0.719079013
12.664396            0.642453653     0.720846828    0.00054459097 -0.000582794235   0.000544590969 -0.000582794235      0.645225281     0.718526412
12.664424             0.64301734     0.720294469   0.000545208655 -0.000584456089   0.000545208654 -0.000584456089      0.645786414     0.717972732
12.664452            0.643581175     0.719741025    0.00054582611 -0.000586122916   0.000545826109 -0.000586122916      0.646347691      0.71741797
12.66448             0.644145158     0.719186493   0.000546443327 -0.000587794729   0.000546443326  -0.00058779473       0.64690911     0.716862124
12.664508            0.644709287     0.718630871   0.000547060298 -0.000589471545   0.000547060298 -0.000589471546       0.64747067     0.716305192
12.664536            0.645273562     0.718074158   0.000547677017 -0.000591153379   0.000547677017  -0.00059115338       0.64803237     0.715747173
12.664564            0.645837982     0.717516349   0.000548293475 -0.000592840246   0.000548293474 -0.000592840247       0.64859421     0.715188062
12.664592            0.646402545     0.716957444   0.000548909664 -0.000594532162   0.000548909664 -0.000594532162      0.649156188     0.714627859
12.66462             0.646967252      0.71639744   0.000549525577 -0.000596229142   0.000549525577 -0.000596229142      0.649718304     0.714066561
12.664648            0.647532101     0.715836335   0.000550141206 -0.000597931202   0.000550141205 -0.000597931202      0.650280556     0.713504166
12.664676             0.64809709     0.715274126   0.000550756542 -0.000599638357   0.000550756542 -0.000599638357      0.650842944     0.712940671
12.664704             0.64866222     0.714710812   0.000551371578 -0.000601350622   0.000551371578 -0.000601350623      0.651405467     0.712376075
12.664732             0.64922749     0.714146389   0.000551986306 -0.000603068015   0.000551986306 -0.000603068015      0.651968124     0.711810374
12.66476             0.649792897     0.713580856   0.000552600718 -0.000604790549   0.000552600717 -0.000604790549      0.652530914     0.711243567
12.664788            0.650358442     0.713014209   0.000553214804 -0.000606518241   0.000553214804 -0.000606518242      0.653093835     0.710675652
12.664816            0.650924123     0.712446448   0.000553828558 -0.000608251108   0.000553828558 -0.000608251108      0.653656888     0.710106625
12.664844             0.65148994     0.711877569   0.000554441971 -0.000609989163   0.000554441971 -0.000609989164       0.65422007     0.709536486
12.664872            0.652055891     0.711307571   0.000555055035 -0.000611732425   0.000555055034 -0.000611732425      0.654783382      0.70896523
12.6649              0.652621976      0.71073645   0.000555667741 -0.000613480908    0.00055566774 -0.000613480908      0.655346821     0.708392857
12.664928            0.653188194     0.710164205    0.00055628008 -0.000615234628   0.000556280079 -0.000615234628      0.655910388     0.707819364
12.664956            0.653754542     0.709590833   0.000556892044 -0.000616993601   0.000556892044 -0.000616993602       0.65647408     0.707244748
12.664984            0.654321022     0.709016332   0.000557503625 -0.000618757845   0.000557503625 -0.000618757845      0.657037898     0.706669007
12.665012            0.654887631     0.708440699   0.000558114814 -0.000620527373   0.000558114814 -0.000620527373       0.65760184     0.706092139
12.66504             0.655454368     0.707863932   0.000558725602 -0.000622302204   0.000558725602 -0.000622302204      0.658165905     0.705514142
12.665068            0.656021233     0.707286029   0.000559335981 -0.000624082352   0.000559335981 -0.000624082352      0.658730091     0.704935013
12.665096            0.656588225     0.706706988   0.000559945941 -0.000625867835   0.000559945941 -0.000625867835      0.659294399     0.704354749
12.665124            0.657155342     0.706126805   0.000560555474 -0.000627658668   0.000560555474 -0.000627658668      0.659858827      0.70377335
12.665152            0.657722584     0.705545479   0.000561164571 -0.000629454868   0.000561164571 -0.000629454868      0.660423374     0.703190811
12.66518             0.658289949     0.704963008   0.000561773223 -0.000631256452   0.000561773222 -0.000631256452      0.660988039     0.702607131
12.665208            0.658857437     0.704379388    0.00056238142 -0.000633063435    0.00056238142 -0.000633063435       0.66155282     0.702022307
12.665236            0.659425046     0.703794617   0.000562989154 -0.000634875834   0.000562989154 -0.000634875834      0.662117718     0.701436338
12.665264            0.659992775     0.703208694   0.000563596416 -0.000636693666   0.000563596415 -0.000636693666       0.66268273      0.70084922
12.665292            0.660560624     0.702621615   0.000564203195 -0.000638516947   0.000564203195 -0.000638516947      0.663247856     0.700260951
12.66532             0.661128591     0.702033378   0.000564809483 -0.000640345693   0.000564809483 -0.000640345694      0.663813095     0.699671529
12.665348            0.661696675     0.701443981   0.000565415271 -0.000642179923    0.00056541527 -0.000642179923      0.664378445     0.699080952
12.665376            0.662264875     0.700853421   0.000566020549 -0.000644019651   0.000566020548 -0.000644019652      0.664943906     0.698489217
12.665404             0.66283319     0.700261697   0.000566625307 -0.000645864896   0.000566625306 -0.000645864896      0.665509476     0.697896321