! TOUCHSTONE file generated by CST MICROWAVE STUDIO
! Date and time: Wed Jul 31 18:46:38 2024
! Project name: WaveGuide_BPF-Ver4.1_U-shape_Ku_T3_C4_CWA_2.cst
! Parameters = {cavity_h=16; cavity_l0=10; cavity_l1=15.2288; cavity_l2=16.8705; cavity_l3=17.0637; cavity_l4=17.2658; cavity_l5=17.1418; cavity_l6=17.6236; cavity_r=2.5; cavity_screw_l=0.5; cavity_screw_r=1.5; cavity_w=8; iris_h00=0; iris_h01=8.835; iris_h112=0; iris_h12=5.6113; iris_h211=3.651; iris_h23=5.19; iris_h310=3.9783; iris_h34=5.0841; iris_h45=4.9195; iris_h49=4.6114; iris_h56=4.7894; iris_h58=4.4381; iris_h67=6.5865; iris_rx=0.1; iris_screw_l=0.5; iris_screw_r=1.5; iris_shift00=0; iris_shift112=0; iris_shift211=3.5; iris_shift310=0; iris_shift49=0; iris_shift58=3.5; iris_shift67=3.5; iris_tx=4.5; iris_tz=4.5; iris_w00=0; iris_w112=0; iris_w211=4; iris_w310=3.9783; iris_w49=4.6114; iris_w58=4; iris_w67=4; mesh_cavity=5; mesh_iris=7; mesh_screw=7; order=12; reset_all=0; sigma=4.8e+07}
! Header version: 2018
! Port assignment regex: !\s*Touchstone port\s*([0-9]+)\s*=\s*(CST MWS port|CST DS port)\s*([0-9]+|Zmin|Zmax)\s*\(\"(.*)\"\)(\s*mode\s*([0-9]+))?.*
! Touchstone port assignment:
! Touchstone port 1 = CST MWS port 1 ("")
! Touchstone port 2 = CST MWS port 2 ("")
# GHz S RI R 50
12.66                0.527475766     0.816985485    0.00039605353  -0.00030615299   0.000396053531 -0.000306152991      0.534398879     0.812424701
12.660028            0.527988647     0.816624661    0.00039657609 -0.000306986917   0.000396576092 -0.000306986918      0.534910745     0.812058054
12.660056            0.528501643     0.816263233    0.00039709918 -0.000307823216   0.000397099181 -0.000307823217      0.535422882     0.811690698
12.660084            0.529014807     0.815901169   0.000397622785 -0.000308661899   0.000397622787 -0.000308661901      0.535935271     0.811322641
12.660112            0.529528189     0.815538434   0.000398146895 -0.000309502978   0.000398146896 -0.000309502979      0.536447897     0.810953893
12.66014              0.53004184     0.815174997   0.000398671496 -0.000310346463   0.000398671497 -0.000310346464      0.536960742     0.810584464
12.660168            0.530555762     0.814810854   0.000399196587 -0.000311192362   0.000399196588 -0.000311192363      0.537473804     0.810214351
12.660196            0.531069918     0.814446027   0.000399722175 -0.000312040679   0.000399722176  -0.00031204068      0.537987097     0.809843548
12.660224            0.531584309     0.814080514   0.000400248258 -0.000312891422    0.00040024826 -0.000312891423      0.538500618     0.809472051
12.660252            0.532098934     0.813714313   0.000400774836 -0.000313744598   0.000400774838   -0.0003137446      0.539014369     0.809099861
12.66028             0.532613794     0.813347424   0.000401301908 -0.000314600215   0.000401301909 -0.000314600216      0.539528349     0.808726975
12.660308            0.533128888     0.812979845   0.000401829471 -0.000315458279   0.000401829472 -0.000315458281      0.540042557     0.808353392
12.660336            0.533644216     0.812611574   0.000402357525 -0.000316318799   0.000402357527 -0.000316318801      0.540556993     0.807979111
12.660364            0.534159778     0.812242611    0.00040288607 -0.000317181782   0.000402886071 -0.000317181784      0.541071658     0.807604131
12.660392            0.534675573     0.811872954   0.000403415102 -0.000318047235   0.000403415104 -0.000318047237      0.541586551      0.80722845
12.66042             0.535191601     0.811502601   0.000403944623 -0.000318915166   0.000403944624 -0.000318915167      0.542101671     0.806852068
12.660448            0.535707863     0.811131552   0.000404474629 -0.000319785582    0.00040447463 -0.000319785583      0.542617019     0.806474981
12.660476            0.536224357     0.810759805    0.00040500512 -0.000320658491   0.000405005121 -0.000320658492      0.543132594      0.80609719
12.660504            0.536741083     0.810387359   0.000405536095   -0.0003215339   0.000405536096 -0.000321533902      0.543648396     0.805718693
12.660532            0.537258042     0.810014212   0.000406067552 -0.000322411817   0.000406067553 -0.000322411819      0.544164424     0.805339489
12.66056             0.537775234     0.809640363    0.00040659949  -0.00032329225   0.000406599491 -0.000323292252      0.544680679     0.804959575
12.660588            0.538292656      0.80926581   0.000407131907 -0.000324175206   0.000407131909 -0.000324175208      0.545197161     0.804578952
12.660616            0.538810311     0.808890553   0.000407664804 -0.000325060693   0.000407664805 -0.000325060695      0.545713868     0.804197617
12.660644            0.539328197      0.80851459   0.000408198177 -0.000325948719   0.000408198178  -0.00032594872      0.546230801     0.803815569
12.660672            0.539846314      0.80813792   0.000408732026  -0.00032683929   0.000408732028 -0.000326839292      0.546747959     0.803432807
12.6607              0.540364662      0.80776054    0.00040926635 -0.000327732416   0.000409266351 -0.000327732418      0.547265342     0.803049329
12.660728            0.540883241     0.807382451   0.000409801146 -0.000328628104   0.000409801148 -0.000328628105       0.54778295     0.802665135
12.660756             0.54140205      0.80700365   0.000410336415 -0.000329526361   0.000410336416 -0.000329526363      0.548300783     0.802280222
12.660784            0.541921089     0.806624136   0.000410872153 -0.000330427196   0.000410872154 -0.000330427197      0.548818841     0.801894589
12.660812            0.542440358     0.806243908    0.00041140836 -0.000331330616   0.000411408362 -0.000331330617      0.549337122     0.801508235
12.66084             0.542959857     0.805862964   0.000411945035 -0.000332236628   0.000411945036  -0.00033223663      0.549855627     0.801121159
12.660868            0.543479585     0.805481303   0.000412482176 -0.000333145242   0.000412482177 -0.000333145244      0.550374356     0.800733358
12.660896            0.543999542     0.805098924   0.000413019781 -0.000334056465   0.000413019782 -0.000334056466      0.550893307     0.800344833
12.660924            0.544519729     0.804715825   0.000413557849 -0.000334970304    0.00041355785 -0.000334970306      0.551412482     0.799955581
12.660952            0.545040144     0.804332005   0.000414096379 -0.000335886769    0.00041409638  -0.00033588677       0.55193188       0.7995656
12.66098             0.545560787     0.803947463   0.000414635369 -0.000336805866    0.00041463537 -0.000336805867        0.5524515     0.799174891
12.661008            0.546081658     0.803562196   0.000415174817 -0.000337727603   0.000415174818 -0.000337727605      0.552971342      0.79878345
12.661036            0.546602757     0.803176204   0.000415714722  -0.00033865199   0.000415714723 -0.000338651991      0.553491406     0.798391278
12.661064            0.547124084     0.802789485   0.000416255083 -0.000339579033   0.000416255084 -0.000339579034      0.554011692     0.797998371
12.661092            0.547645638     0.802402039   0.000416795897 -0.000340508741   0.000416795899 -0.000340508742      0.554532198      0.79760473
12.66112             0.548167419     0.802013862   0.000417337164 -0.000341441122   0.000417337165 -0.000341441123      0.555052926     0.797210352
12.661148            0.548689427     0.801624955   0.000417878882 -0.000342376184   0.000417878883 -0.000342376186      0.555573875     0.796815236
12.661176            0.549211661     0.801235315   0.000418421048 -0.000343313936   0.000418421049 -0.000343313937      0.556095043     0.796419381
12.661204            0.549734121     0.800844942   0.000418963662 -0.000344254385   0.000418963663 -0.000344254386      0.556616432     0.796022785
12.661232            0.550256807     0.800453833   0.000419506722 -0.000345197539   0.000419506723 -0.000345197541      0.557138041     0.795625447
12.66126             0.550779719     0.800061988   0.000420050225 -0.000346143408   0.000420050227 -0.000346143409      0.557659869     0.795227365
12.661288            0.551302856     0.799669405   0.000420594172 -0.000347091998   0.000420594173    -0.000347092      0.558181916     0.794828539
12.661316            0.551826219     0.799276082   0.000421138559 -0.000348043319    0.00042113856 -0.000348043321      0.558704183     0.794428966
12.661344            0.552349806     0.798882018   0.000421683385 -0.000348997379   0.000421683386 -0.000348997381      0.559226667     0.794028645
12.661372            0.552873617     0.798487212   0.000422228648 -0.000349954186    0.00042222865 -0.000349954187       0.55974937     0.793627575
12.6614              0.553397653     0.798091663   0.000422774347 -0.000350913748   0.000422774348  -0.00035091375      0.560272291     0.793225754
12.661428            0.553921912     0.797695368    0.00042332048 -0.000351876074   0.000423320481 -0.000351876076      0.560795429     0.792823181
12.661456            0.554446395     0.797298326   0.000423867045 -0.000352841173   0.000423867046 -0.000352841174      0.561318785     0.792419854
12.661484            0.554971101     0.796900537    0.00042441404 -0.000353809052   0.000424414041 -0.000353809053      0.561842358     0.792015772
12.661512            0.555496031     0.796501998   0.000424961463  -0.00035477972   0.000424961464 -0.000354779722      0.562366147     0.791610934
12.66154             0.556021182     0.796102707   0.000425509313 -0.000355753186   0.000425509314 -0.000355753188      0.562890152     0.791205338
12.661568            0.556546556     0.795702665   0.000426057588 -0.000356729458   0.000426057589  -0.00035672946      0.563414374     0.790798982
12.661596            0.557072153     0.795301869   0.000426606286 -0.000357708545   0.000426606287 -0.000357708546      0.563938811     0.790391865
12.661624            0.557597971     0.794900317   0.000427155404 -0.000358690455   0.000427155405 -0.000358690456      0.564463463     0.789983986
12.661652             0.55812401     0.794498008   0.000427704942 -0.000359675197   0.000427704943 -0.000359675198      0.564988331     0.789575343
12.66168              0.55865027     0.794094942   0.000428254897 -0.000360662779   0.000428254898 -0.000360662781      0.565513413     0.789165935
12.661708            0.559176751     0.793691115   0.000428805267 -0.000361653211   0.000428805268 -0.000361653212      0.566038709      0.78875576
12.661736            0.559703453     0.793286528    0.00042935605   -0.0003626465   0.000429356052 -0.000362646501      0.566564219     0.788344817
12.661764            0.560230374     0.792881177   0.000429907245 -0.000363642656   0.000429907247 -0.000363642657      0.567089943     0.787933104
12.661792            0.560757516     0.792475063   0.000430458849 -0.000364641687   0.000430458851 -0.000364641688       0.56761588      0.78752062
12.66182             0.561284876     0.792068183   0.000431010861 -0.000365643602   0.000431010862 -0.000365643604       0.56814203     0.787107363
12.661848            0.561812456     0.791660536   0.000431563278  -0.00036664841   0.000431563279 -0.000366648412      0.568668392     0.786693332
12.661876            0.562340255      0.79125212   0.000432116098  -0.00036765612   0.000432116099 -0.000367656121      0.569194967     0.786278525
12.661904            0.562868272     0.790842934   0.000432669319  -0.00036866674    0.00043266932 -0.000368666741      0.569721753     0.785862941
12.661932            0.563396507     0.790432977   0.000433222939 -0.000369680279    0.00043322294 -0.000369680281      0.570248751     0.785446578
12.66196              0.56392496     0.790022246   0.000433776957 -0.000370696747   0.000433776958 -0.000370696748      0.570775959     0.785029435
12.661988             0.56445363     0.789610741   0.000434331369 -0.000371716152    0.00043433137 -0.000371716153      0.571303379     0.784611511
12.662016            0.564982518      0.78919846   0.000434886174 -0.000372738502   0.000434886175 -0.000372738504      0.571831009     0.784192803
12.662044            0.565511622     0.788785401   0.000435441369 -0.000373763808   0.000435441371  -0.00037376381      0.572358849     0.783773311
12.662072            0.566040942     0.788371564   0.000435996953 -0.000374792078   0.000435996955  -0.00037479208      0.572886898     0.783353032
12.6621              0.566570479     0.787956945   0.000436552924 -0.000375823322   0.000436552925 -0.000375823323      0.573415157     0.782931965
12.662128            0.567100231     0.787541545   0.000437109278 -0.000376857547   0.000437109279 -0.000376857548      0.573943624      0.78251011
12.662156            0.567630198     0.787125361   0.000437666014 -0.000377894764   0.000437666015 -0.000377894765        0.5744723     0.782087463
12.662184             0.56816038     0.786708392   0.000438223129 -0.000378934981   0.000438223131 -0.000378934982      0.575001184     0.781664025
12.662212            0.568690777     0.786290636   0.000438780622 -0.000379978207   0.000438780624 -0.000379978209      0.575530276     0.781239792
12.66224             0.569221388     0.785872092    0.00043933849 -0.000381024453   0.000439338491 -0.000381024454      0.576059575     0.780814764
12.662268            0.569752212     0.785452758    0.00043989673 -0.000382073726   0.000439896732 -0.000382073727       0.57658908     0.780388939
12.662296             0.57028325     0.785032633   0.000440455341 -0.000383126036   0.000440455342 -0.000383126038      0.577118793     0.779962316
12.662324            0.570814501     0.784611716    0.00044101432 -0.000384181393   0.000441014321 -0.000384181395      0.577648711     0.779534893
12.662352            0.571345965     0.784190004   0.000441573664 -0.000385239806   0.000441573665 -0.000385239807      0.578178835     0.779106668
12.66238             0.571877641     0.783767496   0.000442133371 -0.000386301283   0.000442133373 -0.000386301285      0.578709164     0.778677641
12.662408            0.572409529      0.78334419   0.000442693439 -0.000387365835   0.000442693441 -0.000387365837      0.579239699     0.778247808
12.662436            0.572941629     0.782920086   0.000443253866 -0.000388433471   0.000443253867 -0.000388433472      0.579770437      0.77781717
12.662464             0.57347394     0.782495181   0.000443814648 -0.000389504199   0.000443814649 -0.000389504201       0.58030138     0.777385723
12.662492            0.574006461     0.782069475   0.000444375784 -0.000390578031   0.000444375785 -0.000390578032      0.580832527     0.776953468
12.66252             0.574539193     0.781642964    0.00044493727 -0.000391654974   0.000444937271 -0.000391654976      0.581363876     0.776520401
12.662548            0.575072134     0.781215649   0.000445499105 -0.000392735039   0.000445499106 -0.000392735041      0.581895428     0.776086522
12.662576            0.575605286     0.780787526   0.000446061286 -0.000393818236   0.000446061287 -0.000393818237      0.582427183     0.775651829
12.662604            0.576138646     0.780358596   0.000446623809 -0.000394904572   0.000446623811 -0.000394904574       0.58295914     0.775216321
12.662632            0.576672215     0.779928855   0.000447186674 -0.000395994059   0.000447186675 -0.000395994061      0.583491298     0.774779996
12.66266             0.577205992     0.779498303   0.000447749876 -0.000397086706   0.000447749878 -0.000397086707      0.584023657     0.774342851
12.662688            0.577739978     0.779066938   0.000448313414 -0.000398182522   0.000448313415 -0.000398182524      0.584556217     0.773904887
12.662716             0.57827417     0.778634758   0.000448877285 -0.000399281517   0.000448877286 -0.000399281519      0.585088978       0.7734661
12.662744             0.57880857     0.778201763   0.000449441486 -0.000400383701   0.000449441487 -0.000400383703      0.585621937      0.77302649
12.662772            0.579343177     0.777767949   0.000450006014 -0.000401489084   0.000450006015 -0.000401489086      0.586155097     0.772586055
12.6628               0.57987799     0.777333316   0.000450570866 -0.000402597675   0.000450570867 -0.000402597677      0.586688455     0.772144794
12.662828            0.580413008     0.776897862   0.000451136041 -0.000403709484   0.000451136042 -0.000403709486      0.587222011     0.771702704
12.662856            0.580948232     0.776461586   0.000451701534 -0.000404824521   0.000451701536 -0.000404824523      0.587755766     0.771259784
12.662884            0.581483661     0.776024485   0.000452267344 -0.000405942796   0.000452267346 -0.000405942797      0.588289718     0.770816033
12.662912            0.582019294     0.775586559   0.000452833468 -0.000407064318   0.000452833469  -0.00040706432      0.588823867     0.770371448
12.66294             0.582555132     0.775147805   0.000453399902 -0.000408189098   0.000453399903   -0.0004081891      0.589358213     0.769926029
12.662968            0.583091173     0.774708222   0.000453966644 -0.000409317145   0.000453966645 -0.000409317147      0.589892755     0.769479774
12.662996            0.583627417     0.774267809   0.000454533691  -0.00041044847   0.000454533692 -0.000410448472      0.590427492     0.769032681
12.663024            0.584163864     0.773826564    0.00045510104 -0.000411583083   0.000455101041 -0.000411583084      0.590962425     0.768584748
12.663052            0.584700513     0.773384484   0.000455668688 -0.000412720992   0.000455668689 -0.000412720994      0.591497552     0.768135974
12.66308             0.585237365     0.772941569   0.000456236632  -0.00041386221   0.000456236633 -0.000413862211      0.592032874     0.767686357
12.663108            0.585774417     0.772497817   0.000456804869 -0.000415006745    0.00045680487 -0.000415006746      0.592568389     0.767235896
12.663136            0.586311671     0.772053227   0.000457373396 -0.000416154608   0.000457373397 -0.000416154609      0.593104098     0.766784589
12.663164            0.586849124     0.771607796   0.000457942211 -0.000417305809   0.000457942212  -0.00041730581      0.593639999     0.766332434
12.663192            0.587386778     0.771161523   0.000458511309 -0.000418460357    0.00045851131 -0.000418460359      0.594176093     0.765879429
12.66322             0.587924632     0.770714407   0.000459080688 -0.000419618265    0.00045908069 -0.000419618266      0.594712379     0.765425574
12.663248            0.588462684     0.770266445   0.000459650346  -0.00042077954   0.000459650347 -0.000420779542      0.595248856     0.764970866
12.663276            0.589000936     0.769817636   0.000460220278 -0.000421944195   0.000460220279 -0.000421944197      0.595785524     0.764515304
12.663304            0.589539385     0.769367979   0.000460790481 -0.000423112239   0.000460790482 -0.000423112241      0.596322382     0.764058886
12.663332            0.590078032     0.768917471   0.000461360953 -0.000424283682   0.000461360954 -0.000424283684       0.59685943      0.76360161
12.66336             0.590616876     0.768466112    0.00046193169 -0.000425458536   0.000461931691 -0.000425458537      0.597396667     0.763143475
12.663388            0.591155916     0.768013899   0.000462502689 -0.000426636809    0.00046250269 -0.000426636811      0.597934093     0.762684479
12.663416            0.591695153     0.767560831   0.000463073947 -0.000427818514   0.000463073948 -0.000427818515      0.598471707      0.76222462
12.663444            0.592234586     0.767106906    0.00046364546 -0.000429003659   0.000463645461 -0.000429003661      0.599009509     0.761763898
12.663472            0.592774214     0.766652123   0.000464217225 -0.000430192257   0.000464217226 -0.000430192258      0.599547498     0.761302309
12.6635              0.593314036     0.766196479   0.000464789239 -0.000431384316    0.00046478924 -0.000431384318      0.600085674     0.760839852
12.663528            0.593854053     0.765739974   0.000465361498 -0.000432579849   0.000465361499  -0.00043257985      0.600624036     0.760376527
12.663556            0.594394263     0.765282605   0.000465933999 -0.000433778864   0.000465934001 -0.000433778866      0.601162584      0.75991233
12.663584            0.594934667     0.764824371   0.000466506739 -0.000434981374    0.00046650674 -0.000434981376      0.601701317      0.75944726
12.663612            0.595475263     0.764365269   0.000467079714 -0.000436187389   0.000467079715  -0.00043618739      0.602240235     0.758981317
12.66364             0.596016051       0.7639053   0.000467652921 -0.000437396919   0.000467652922  -0.00043739692      0.602779336     0.758514497
12.663668            0.596557031     0.763444459   0.000468226356 -0.000438609975   0.000468226357 -0.000438609977      0.603318621     0.758046799
12.663696            0.597098202     0.762982747   0.000468800015 -0.000439826568   0.000468800016  -0.00043982657      0.603858089     0.757578222
12.663724            0.597639564     0.762520161   0.000469373896 -0.000441046709   0.000469373897  -0.00044104671       0.60439774     0.757108764
12.663752            0.598181116       0.7620567   0.000469947994 -0.000442270408   0.000469947995  -0.00044227041      0.604937572     0.756638423
12.66378             0.598722857     0.761592362   0.000470522305 -0.000443497677   0.000470522307 -0.000443497678      0.605477585     0.756167197
12.663808            0.599264787     0.761127144   0.000471096827 -0.000444728526   0.000471096829 -0.000444728527       0.60601778     0.755695085
12.663836            0.599806906     0.760661047   0.000471671556 -0.000445962966   0.000471671557 -0.000445962968      0.606558154     0.755222085
12.663864            0.600349213     0.760194067   0.000472246488 -0.000447201008   0.000472246489  -0.00044720101      0.607098708     0.754748195
12.663892            0.600891707     0.759726202   0.000472821618 -0.000448442664    0.00047282162 -0.000448442666      0.607639441     0.754273414
12.66392             0.601434388     0.759257453   0.000473396944 -0.000449687944   0.000473396946 -0.000449687945      0.608180353     0.753797739
12.663948            0.601977255     0.758787815   0.000473972462 -0.000450936859   0.000473972463  -0.00045093686      0.608721442     0.753321169
12.663976            0.602520308     0.758317289   0.000474548168  -0.00045218942   0.000474548169 -0.000452189422      0.609262709     0.752843703
12.664004            0.603063546     0.757845872   0.000475124057 -0.000453445639   0.000475124058  -0.00045344564      0.609804152     0.752365339
12.664032            0.603606968     0.757373562   0.000475700127 -0.000454705526   0.000475700128 -0.000454705528      0.610345772     0.751886074
12.66406             0.604150575     0.756900357   0.000476276372 -0.000455969094   0.000476276374 -0.000455969095      0.610887567     0.751405907
12.664088            0.604694365     0.756426257    0.00047685279 -0.000457236352   0.000476852792 -0.000457236354      0.611429537     0.750924837
12.664116            0.605238338     0.755951258   0.000477429377 -0.000458507313   0.000477429378 -0.000458507314      0.611971681     0.750442861
12.664144            0.605782494      0.75547536   0.000478006127 -0.000459781987   0.000478006128 -0.000459781989      0.612513999     0.749959978
12.664172            0.606326831     0.754998561   0.000478583038 -0.000461060386   0.000478583039 -0.000461060388      0.613056491     0.749476186
12.6642              0.606871349     0.754520858   0.000479160105 -0.000462342522   0.000479160107 -0.000462342523      0.613599154     0.748991483
12.664228            0.607416048      0.75404225   0.000479737325 -0.000463628405   0.000479737326 -0.000463628407       0.61414199     0.748505868
12.664256            0.607960927     0.753562736   0.000480314692 -0.000464918047   0.000480314693 -0.000464918049      0.614684997     0.748019339
12.664284            0.608505985     0.753082313   0.000480892203  -0.00046621146   0.000480892204 -0.000466211462      0.615228174     0.747531893
12.664312            0.609051222      0.75260098   0.000481469854 -0.000467508656   0.000481469855 -0.000467508657      0.615771522      0.74704353
12.66434             0.609596637     0.752118735   0.000482047641 -0.000468809644   0.000482047642 -0.000468809646      0.616315039     0.746554247
12.664368             0.61014223     0.751635576   0.000482625558 -0.000470114438    0.00048262556  -0.00047011444      0.616858724     0.746064043
12.664396               0.610688     0.751151502   0.000483203603 -0.000471423049   0.000483203604 -0.000471423051      0.617402578     0.745572916
12.664424            0.611233946      0.75066651   0.000483781771 -0.000472735489   0.000483781772  -0.00047273549      0.617946599     0.745080863
12.664452            0.611780068     0.750180599   0.000484360056 -0.000474051768   0.000484360058  -0.00047405177      0.618490788     0.744587884
12.66448             0.612326365     0.749693767   0.000484938456   -0.0004753719   0.000484938457 -0.000475371901      0.619035142     0.744093977
12.664508            0.612872836     0.749206012   0.000485516966 -0.000476695895   0.000485516967 -0.000476695896      0.619579662     0.743599139
12.664536            0.613419482     0.748717332    0.00048609558 -0.000478023765   0.000486095581 -0.000478023767      0.620124347     0.743103369
12.664564              0.6139663     0.748227727   0.000486674295 -0.000479355523   0.000486674296 -0.000479355524      0.620669196     0.742606664
12.664592            0.614513292     0.747737193   0.000487253107 -0.000480691179   0.000487253108 -0.000480691181      0.621214208     0.742109024
12.66462             0.615060455     0.747245728    0.00048783201 -0.000482030747   0.000487832011 -0.000482030749      0.621759384     0.741610447
12.664648             0.61560779     0.746753333      0.000488411 -0.000483374238   0.000488411001 -0.000483374239      0.622304722      0.74111093
12.664676            0.616155295     0.746260003   0.000488990073 -0.000484721663   0.000488990074 -0.000484721665      0.622850221     0.740610472
12.664704             0.61670297     0.745765738   0.000489569223 -0.000486073035   0.000489569224 -0.000486073037      0.623395881      0.74010907
12.664732            0.617250815     0.745270536   0.000490148447 -0.000487428367   0.000490148448 -0.000487428368      0.623941701     0.739606724
12.66476             0.617798829     0.744774394   0.000490727739 -0.000488787669    0.00049072774  -0.00048878767      0.624487681     0.739103431
12.664788             0.61834701     0.744277312   0.000491307095 -0.000490150954   0.000491307096 -0.000490150955       0.62503382     0.738599189
12.664816            0.618895359     0.743779286   0.000491886509 -0.000491518234    0.00049188651 -0.000491518236      0.625580117     0.738093997
12.664844            0.619443875     0.743280316   0.000492465978 -0.000492889522   0.000492465979 -0.000492889524      0.626126571     0.737587853
12.664872            0.619992557       0.7427804   0.000493045497 -0.000494264829   0.000493045498 -0.000494264831      0.626673182     0.737080754
12.6649              0.620541404     0.742279535   0.000493625059 -0.000495644168    0.00049362506  -0.00049564417      0.627219949       0.7365727
12.664928            0.621090416      0.74177772   0.000494204661 -0.000497027552   0.000494204662 -0.000497027553      0.627766871     0.736063687
12.664956            0.621639592     0.741274953   0.000494784298 -0.000498414991   0.000494784299 -0.000498414993      0.628313948     0.735553715
12.664984            0.622188931     0.740771231   0.000495363964   -0.0004998065   0.000495363965 -0.000499806502      0.628861179     0.735042781
12.665012            0.622738433     0.740266554   0.000495943655  -0.00050120209   0.000495943656 -0.000501202091      0.629408563     0.734530884
12.66504             0.623288097      0.73976092   0.000496523365 -0.000502601773   0.000496523367 -0.000502601775      0.629956099     0.734018022
12.665068            0.623837922     0.739254325    0.00049710309 -0.000504005563   0.000497103091 -0.000504005564      0.630503787     0.733504192
12.665096            0.624387908      0.73874677   0.000497682824 -0.000505413471   0.000497682825 -0.000505413473      0.631051626     0.732989393
12.665124            0.624938053     0.738238251   0.000498262562  -0.00050682551   0.000498262563 -0.000506825512      0.631599615     0.732473623
12.665152            0.625488358     0.737728766   0.000498842299 -0.000508241693     0.0004988423 -0.000508241695      0.632147754      0.73195688
12.66518             0.626038821     0.737218315   0.000499422029 -0.000509662033    0.00049942203 -0.000509662034      0.632696041     0.731439163
12.665208            0.626589441     0.736706895   0.000500001748 -0.000511086541   0.000500001749 -0.000511086543      0.633244477     0.730920469
12.665236            0.627140219     0.736194504    0.00050058145 -0.000512515231   0.000500581451 -0.000512515233      0.633793059     0.730400796
12.665264            0.627691153     0.735681139   0.000501161129 -0.000513948116    0.00050116113 -0.000513948118      0.634341788     0.729880143
12.665292            0.628242242     0.735166801   0.000501740781 -0.000515385208   0.000501740782  -0.00051538521      0.634890663     0.729358508
12.66532             0.628793486     0.734651485   0.000502320399  -0.00051682652     0.0005023204 -0.000516826522      0.635439682     0.728835888
12.665348            0.629344884     0.734135192   0.000502899979 -0.000518272065    0.00050289998 -0.000518272066      0.635988846     0.728312282
12.665376            0.629896436     0.733617917   0.000503479515 -0.000519721855   0.000503479516 -0.000519721857      0.636538153     0.727787688
12.665404             0.63044814     0.733099661      0.000504059 -0.000521175905   0.000504059001 -0.000521175906      0.637087603     0.727262104