! TOUCHSTONE file generated by CST MICROWAVE STUDIO
! Date and time: Wed Jul 31 18:49:55 2024
! Project name: WaveGuide_BPF-Ver4.1_U-shape_Ku_T3_C4_CWA_2.cst
! Parameters = {cavity_h=16; cavity_l0=10; cavity_l1=15.1885; cavity_l2=16.8338; cavity_l3=17.1046; cavity_l4=17.2978; cavity_l5=17.1275; cavity_l6=17.5846; cavity_r=2.5; cavity_screw_l=0.5; cavity_screw_r=1.5; cavity_w=8; iris_h00=0; iris_h01=8.8197; iris_h112=0; iris_h12=5.5883; iris_h211=3.6548; iris_h23=5.1941; iris_h310=3.9781; iris_h34=5.08; iris_h45=4.9225; iris_h49=4.6234; iris_h56=4.7886; iris_h58=4.4308; iris_h67=6.5934; iris_rx=0.1; iris_screw_l=0.5; iris_screw_r=1.5; iris_shift00=0; iris_shift112=0; iris_shift211=3.5; iris_shift310=0; iris_shift49=0; iris_shift58=3.5; iris_shift67=3.5; iris_tx=4.5; iris_tz=4.5; iris_w00=0; iris_w112=0; iris_w211=4; iris_w310=3.9781; iris_w49=4.6234; iris_w58=4; iris_w67=4; mesh_cavity=5; mesh_iris=7; mesh_screw=7; order=12; reset_all=0; sigma=4.8e+07}
! Header version: 2018
! Port assignment regex: !\s*Touchstone port\s*([0-9]+)\s*=\s*(CST MWS port|CST DS port)\s*([0-9]+|Zmin|Zmax)\s*\(\"(.*)\"\)(\s*mode\s*([0-9]+))?.*
! Touchstone port assignment:
! Touchstone port 1 = CST MWS port 1 ("")
! Touchstone port 2 = CST MWS port 2 ("")
# GHz S RI R 50
12.66                 0.27179292     0.944540066    0.00017833941 -6.46767278e-05   0.000178339409 -6.46767276e-05      0.277033616     0.943034625
12.660028            0.272155347     0.944424282   0.000178575831 -6.48448961e-05    0.00017857583 -6.48448959e-05      0.277395598     0.942916781
12.660056            0.272517947      0.94430828   0.000178812608 -6.50134821e-05   0.000178812607 -6.50134819e-05      0.277757704     0.942798732
12.660084            0.272880731     0.944192058   0.000179049739 -6.51824909e-05   0.000179049738 -6.51824907e-05      0.278119966     0.942680469
12.660112            0.273243715      0.94407561   0.000179287221 -6.53519276e-05    0.00017928722 -6.53519274e-05       0.27848242     0.942561981
12.66014             0.273606911     0.943958933   0.000179525052 -6.55217972e-05   0.000179525051  -6.5521797e-05      0.278845099     0.942443259
12.660168            0.273970321     0.943842026   0.000179763232  -6.5692101e-05   0.000179763231 -6.56921008e-05      0.279208004     0.942324301
12.660196            0.274333934     0.943724891   0.000180001764 -6.58628374e-05   0.000180001763 -6.58628373e-05      0.279571111     0.942205114
12.660224            0.274697752     0.943607528   0.000180240648 -6.60340077e-05   0.000180240647 -6.60340076e-05      0.279934422     0.942085698
12.660252            0.275061774     0.943489936   0.000180479884  -6.6205613e-05   0.000180479883 -6.62056129e-05      0.280297935     0.941966052
12.66028             0.275426001     0.943372116   0.000180719474 -6.63776545e-05   0.000180719473 -6.63776543e-05      0.280661652     0.941846176
12.660308            0.275790432     0.943254066   0.000180959418 -6.65501333e-05   0.000180959417 -6.65501332e-05      0.281025573     0.941726069
12.660336            0.276155068     0.943135786   0.000181199716 -6.67230507e-05   0.000181199715 -6.67230505e-05      0.281389697     0.941605732
12.660364            0.276519909     0.943017277   0.000181440369 -6.68964078e-05   0.000181440368 -6.68964076e-05      0.281754025     0.941485163
12.660392            0.276884956     0.942898537   0.000181681377 -6.70702057e-05   0.000181681376 -6.70702056e-05      0.282118556     0.941364362
12.66042             0.277250207     0.942779565   0.000181922741 -6.72444458e-05    0.00018192274 -6.72444456e-05      0.282483292     0.941243329
12.660448            0.277615664     0.942660363   0.000182164461 -6.74191291e-05    0.00018216446 -6.74191289e-05      0.282848232     0.941122063
12.660476            0.277981326     0.942540929   0.000182406537 -6.75942569e-05   0.000182406536 -6.75942567e-05      0.283213376     0.941000565
12.660504            0.278347194     0.942421263   0.000182648971 -6.77698304e-05   0.000182648971 -6.77698302e-05      0.283578725     0.940878833
12.660532            0.278713268     0.942301365   0.000182891763 -6.79458507e-05   0.000182891762 -6.79458506e-05      0.283944279     0.940756867
12.66056             0.279079548     0.942181233   0.000183134914 -6.81223192e-05   0.000183134913  -6.8122319e-05      0.284310037     0.940634668
12.660588            0.279446033     0.942060869   0.000183378423 -6.82992369e-05   0.000183378422 -6.82992367e-05         0.284676     0.940512233
12.660616            0.279812726      0.94194027   0.000183622291 -6.84766051e-05    0.00018362229 -6.84766049e-05      0.285042168     0.940389564
12.660644            0.280179624     0.941819438   0.000183866519  -6.8654425e-05   0.000183866518 -6.86544248e-05      0.285408542      0.94026666
12.660672            0.280546729     0.941698371   0.000184111108 -6.88326978e-05   0.000184111107 -6.88326977e-05       0.28577512     0.940143519
12.6607              0.280914041      0.94157707   0.000184356057 -6.90114249e-05   0.000184356056 -6.90114247e-05      0.286141905     0.940020143
12.660728             0.28128156     0.941455533   0.000184601368 -6.91906073e-05   0.000184601367 -6.91906071e-05      0.286508894      0.93989653
12.660756            0.281649285      0.94133376    0.00018484704 -6.93702463e-05   0.000184847039 -6.93702461e-05       0.28687609      0.93977268
12.660784            0.282017218     0.941211752   0.000185093075 -6.95503431e-05   0.000185093074 -6.95503429e-05      0.287243492     0.939648593
12.660812            0.282385358     0.941089507   0.000185339473  -6.9730899e-05   0.000185339472 -6.97308989e-05      0.287611099     0.939524268
12.66084             0.282753706     0.940967025   0.000185586234 -6.99119153e-05   0.000185586233 -6.99119151e-05      0.287978913     0.939399705
12.660868            0.283122261     0.940844306   0.000185833359 -7.00933931e-05   0.000185833358 -7.00933929e-05      0.288346933     0.939274903
12.660896            0.283491023     0.940721349   0.000186080849 -7.02753338e-05   0.000186080848 -7.02753336e-05       0.28871516     0.939149863
12.660924            0.283859994     0.940598154   0.000186328703 -7.04577385e-05   0.000186328702 -7.04577383e-05      0.289083594     0.939024583
12.660952            0.284229173     0.940474721   0.000186576923 -7.06406085e-05   0.000186576922 -7.06406083e-05      0.289452234     0.938899063
12.66098             0.284598559     0.940351049   0.000186825509 -7.08239451e-05   0.000186825508 -7.08239449e-05      0.289821081     0.938773303
12.661008            0.284968155     0.940227137   0.000187074462 -7.10077496e-05   0.000187074461 -7.10077494e-05      0.290190135     0.938647302
12.661036            0.285337958     0.940102986   0.000187323781 -7.11920231e-05    0.00018732378 -7.11920229e-05      0.290559396     0.938521061
12.661064             0.28570797     0.939978595   0.000187573468 -7.13767671e-05   0.000187573467 -7.13767669e-05      0.290928865     0.938394578
12.661092            0.286078191     0.939853963   0.000187823522 -7.15619826e-05   0.000187823522 -7.15619824e-05      0.291298541     0.938267853
12.66112             0.286448621      0.93972909   0.000188073946 -7.17476711e-05   0.000188073945 -7.17476709e-05      0.291668425     0.938140886
12.661148             0.28681926     0.939603976   0.000188324738 -7.19338338e-05   0.000188324737 -7.19338336e-05      0.292038517     0.938013676
12.661176            0.287190108      0.93947862     0.0001885759  -7.2120472e-05   0.000188575899 -7.21204718e-05      0.292408817     0.937886224
12.661204            0.287561165     0.939353022   0.000188827432  -7.2307587e-05   0.000188827431 -7.23075868e-05      0.292779324     0.937758527
12.661232            0.287932432     0.939227181   0.000189079335 -7.24951801e-05   0.000189079334 -7.24951799e-05       0.29315004     0.937630587
12.66126             0.288303909     0.939101097   0.000189331608 -7.26832525e-05   0.000189331607 -7.26832523e-05      0.293520965     0.937502403
12.661288            0.288675595      0.93897477   0.000189584254 -7.28718055e-05   0.000189584253 -7.28718053e-05      0.293892097     0.937373973
12.661316            0.289047491     0.938848199   0.000189837271 -7.30608406e-05    0.00018983727 -7.30608404e-05      0.294263439     0.937245299
12.661344            0.289419597     0.938721384   0.000190090661 -7.32503589e-05    0.00019009066 -7.32503586e-05      0.294634989     0.937116379
12.661372            0.289791914     0.938594324   0.000190344424 -7.34403617e-05   0.000190344424 -7.34403615e-05      0.295006748     0.936987213
12.6614              0.290164441     0.938467019   0.000190598561 -7.36308505e-05    0.00019059856 -7.36308503e-05      0.295378717     0.936857801
12.661428            0.290537178     0.938339468   0.000190853072 -7.38218265e-05   0.000190853072 -7.38218263e-05      0.295750894     0.936728141
12.661456            0.290910126     0.938211672   0.000191107958  -7.4013291e-05   0.000191107957 -7.40132908e-05      0.296123281     0.936598235
12.661484            0.291283285     0.938083629   0.000191363219 -7.42052454e-05   0.000191363218 -7.42052452e-05      0.296495878     0.936468081
12.661512            0.291656654     0.937955339   0.000191618856 -7.43976909e-05   0.000191618855 -7.43976907e-05      0.296868684     0.936337678
12.66154             0.292030235     0.937826802   0.000191874869  -7.4590629e-05   0.000191874868 -7.45906288e-05        0.2972417     0.936207027
12.661568            0.292404027     0.937698018   0.000192131259 -7.47840609e-05   0.000192131258 -7.47840607e-05      0.297614926     0.936076128
12.661596            0.292778031     0.937568985   0.000192388026  -7.4977988e-05   0.000192388025 -7.49779878e-05      0.297988362     0.935944978
12.661624            0.293152246     0.937439704   0.000192645171 -7.51724117e-05    0.00019264517 -7.51724115e-05      0.298362008     0.935813579
12.661652            0.293526672     0.937310174   0.000192902695 -7.53673332e-05   0.000192902694  -7.5367333e-05      0.298735865      0.93568193
12.66168             0.293901311     0.937180394   0.000193160597  -7.5562754e-05   0.000193160596 -7.55627538e-05      0.299109932      0.93555003
12.661708            0.294276161     0.937050365   0.000193418878 -7.57586754e-05   0.000193418877 -7.57586752e-05       0.29948421     0.935417879
12.661736            0.294651224     0.936920086    0.00019367754 -7.59550987e-05   0.000193677539 -7.59550985e-05      0.299858699     0.935285476
12.661764            0.295026498     0.936789555   0.000193936582 -7.61520254e-05   0.000193936581 -7.61520252e-05      0.300233399     0.935152821
12.661792            0.295401986     0.936658774   0.000194196004 -7.63494567e-05   0.000194196003 -7.63494565e-05       0.30060831     0.935019914
12.66182             0.295777685     0.936527742   0.000194455809 -7.65473941e-05   0.000194455808 -7.65473939e-05      0.300983432     0.934886754
12.661848            0.296153598     0.936396457   0.000194715995 -7.67458389e-05   0.000194715994 -7.67458387e-05      0.301358765     0.934753341
12.661876            0.296529723      0.93626492   0.000194976564 -7.69447926e-05   0.000194976563 -7.69447923e-05       0.30173431     0.934619674
12.661904            0.296906062      0.93613313   0.000195237516 -7.71442564e-05   0.000195237515 -7.71442562e-05      0.302110067     0.934485753
12.661932            0.297282613     0.936001087   0.000195498851 -7.73442318e-05    0.00019549885 -7.73442316e-05      0.302486036     0.934351577
12.66196             0.297659378      0.93586879    0.00019576057 -7.75447202e-05   0.000195760569   -7.754472e-05      0.302862216     0.934217147
12.661988            0.298036356     0.935736239   0.000196022674 -7.77457229e-05   0.000196022673 -7.77457227e-05      0.303238609      0.93408246
12.662016            0.298413548     0.935603433   0.000196285163 -7.79472414e-05   0.000196285163 -7.79472412e-05      0.303615214     0.933947518
12.662044            0.298790953     0.935470373   0.000196548038 -7.81492771e-05   0.000196548037 -7.81492769e-05      0.303992031      0.93381232
12.662072            0.299168573     0.935337057   0.000196811299 -7.83518314e-05   0.000196811298 -7.83518312e-05      0.304369061     0.933676864
12.6621              0.299546406     0.935203485   0.000197074947 -7.85549056e-05   0.000197074946 -7.85549054e-05      0.304746304     0.933541152
12.662128            0.299924454     0.935069656   0.000197338982 -7.87585013e-05   0.000197338981 -7.87585011e-05      0.305123759     0.933405181
12.662156            0.300302716     0.934935571   0.000197603404 -7.89626198e-05   0.000197603403 -7.89626195e-05      0.305501428     0.933268953
12.662184            0.300681192     0.934801229   0.000197868215 -7.91672625e-05   0.000197868214 -7.91672623e-05      0.305879309     0.933132466
12.662212            0.301059883     0.934666629   0.000198133414 -7.93724309e-05   0.000198133413 -7.93724307e-05      0.306257404      0.93299572
12.66224             0.301438789     0.934531771   0.000198399003 -7.95781264e-05   0.000198399002 -7.95781262e-05      0.306635712     0.932858715
12.662268             0.30181791     0.934396654   0.000198664982 -7.97843504e-05   0.000198664981 -7.97843502e-05      0.307014234     0.932721449
12.662296            0.302197246     0.934261278   0.000198931351 -7.99911045e-05    0.00019893135 -7.99911043e-05       0.30739297     0.932583923
12.662324            0.302576797     0.934125643   0.000199198111 -8.01983899e-05    0.00019919811 -8.01983897e-05      0.307771919     0.932446137
12.662352            0.302956563     0.933989748   0.000199465262 -8.04062083e-05   0.000199465261  -8.0406208e-05      0.308151083     0.932308089
12.66238             0.303336545     0.933853592   0.000199732805 -8.06145609e-05   0.000199732804 -8.06145607e-05       0.30853046     0.932169779
12.662408            0.303716742     0.933717176   0.000200000741 -8.08234494e-05    0.00020000074 -8.08234492e-05      0.308910052     0.932031207
12.662436            0.304097155     0.933580498   0.000200269069 -8.10328751e-05   0.000200269068 -8.10328749e-05      0.309289859     0.931892373
12.662464            0.304477784     0.933443559   0.000200537791 -8.12428395e-05    0.00020053779 -8.12428393e-05      0.309669879     0.931753275
12.662492             0.30485863     0.933306357   0.000200806907 -8.14533441e-05   0.000200806906 -8.14533438e-05      0.310050115     0.931613914
12.66252             0.305239691     0.933168893   0.000201076418 -8.16643903e-05   0.000201076417 -8.16643901e-05      0.310430565     0.931474289
12.662548            0.305620969     0.933031165   0.000201346324 -8.18759797e-05   0.000201346323 -8.18759794e-05      0.310811231     0.931334399
12.662576            0.306002463     0.932893174   0.000201616625 -8.20881137e-05   0.000201616624 -8.20881134e-05      0.311192112     0.931194245
12.662604            0.306384174     0.932754919   0.000201887322 -8.23007937e-05   0.000201887321 -8.23007935e-05      0.311573207     0.931053825
12.662632            0.306766102       0.9326164   0.000202158416 -8.25140214e-05   0.000202158415 -8.25140212e-05      0.311954519     0.930913139
12.66266             0.307148247     0.932477615   0.000202429907 -8.27277982e-05   0.000202429906 -8.27277979e-05      0.312336046     0.930772187
12.662688            0.307530609     0.932338566   0.000202701796 -8.29421255e-05   0.000202701795 -8.29421253e-05      0.312717788     0.930630968
12.662716            0.307913188      0.93219925   0.000202974083 -8.31570049e-05   0.000202974082 -8.31570047e-05      0.313099747     0.930489482
12.662744            0.308295985     0.932059668   0.000203246769  -8.3372438e-05   0.000203246768 -8.33724377e-05      0.313481921     0.930347728
12.662772            0.308678999     0.931919819   0.000203519854 -8.35884261e-05   0.000203519853 -8.35884259e-05      0.313864312     0.930205706
12.6628              0.309062231     0.931779703   0.000203793339 -8.38049709e-05   0.000203793338 -8.38049706e-05      0.314246919     0.930063415
12.662828             0.30944568     0.931639319   0.000204067224 -8.40220738e-05   0.000204067223 -8.40220735e-05      0.314629743     0.929920856
12.662856            0.309829348     0.931498667    0.00020434151 -8.42397364e-05   0.000204341509 -8.42397361e-05      0.315012783     0.929778026
12.662884            0.310213234     0.931357746   0.000204616198 -8.44579601e-05   0.000204616197 -8.44579599e-05       0.31539604     0.929634927
12.662912            0.310597338     0.931216556   0.000204891287 -8.46767466e-05   0.000204891286 -8.46767464e-05      0.315779513     0.929491557
12.66294              0.31098166     0.931075097   0.000205166779 -8.48960974e-05   0.000205166778 -8.48960972e-05      0.316163204     0.929347916
12.662968            0.311366201     0.930933367   0.000205442673  -8.5116014e-05   0.000205442672 -8.51160138e-05      0.316547112     0.929204004
12.662996            0.311750961     0.930791367   0.000205718971  -8.5336498e-05    0.00020571897 -8.53364978e-05      0.316931237      0.92905982
12.663024             0.31213594     0.930649096   0.000205995674 -8.55575509e-05   0.000205995673 -8.55575507e-05       0.31731558     0.928915363
12.663052            0.312521137     0.930506553    0.00020627278 -8.57791742e-05   0.000206272779  -8.5779174e-05       0.31770014     0.928770633
12.66308             0.312906554     0.930363738   0.000206550292 -8.60013696e-05   0.000206550291 -8.60013694e-05      0.318084918      0.92862563
12.663108             0.31329219     0.930220651   0.000206828209 -8.62241386e-05   0.000206828208 -8.62241384e-05      0.318469914     0.928480354
12.663136            0.313678046     0.930077291   0.000207106533 -8.64474828e-05   0.000207106532 -8.64474825e-05      0.318855127     0.928334802
12.663164            0.314064121     0.929933658   0.000207385263 -8.66714037e-05   0.000207385262 -8.66714034e-05      0.319240559     0.928188976
12.663192            0.314450416      0.92978975     0.0002076644 -8.68959029e-05   0.000207664399 -8.68959027e-05       0.31962621     0.928042875
12.66322              0.31483693     0.929645569   0.000207943945  -8.7120982e-05   0.000207943944 -8.71209818e-05      0.320012079     0.927896498
12.663248            0.315223665     0.929501112   0.000208223898 -8.73466426e-05   0.000208223897 -8.73466424e-05      0.320398166     0.927749845
12.663276             0.31561062      0.92935638    0.00020850426 -8.75728864e-05   0.000208504259 -8.75728861e-05      0.320784472     0.927602915
12.663304            0.315997795     0.929211372   0.000208785031 -8.77997147e-05    0.00020878503 -8.77997145e-05      0.321170997     0.927455708
12.663332            0.316385191     0.929066088   0.000209066212 -8.80271294e-05   0.000209066211 -8.80271292e-05      0.321557741     0.927308223
12.66336             0.316772808     0.928920527   0.000209347803  -8.8255132e-05   0.000209347802 -8.82551318e-05      0.321944705      0.92716046
12.663388            0.317160645     0.928774689   0.000209629805 -8.84837241e-05   0.000209629804 -8.84837238e-05      0.322331887     0.927012419
12.663416            0.317548703     0.928628573   0.000209912218 -8.87129073e-05   0.000209912217  -8.8712907e-05      0.322719289     0.926864098
12.663444            0.317936982     0.928482179   0.000210195044 -8.89426832e-05   0.000210195043 -8.89426829e-05      0.323106911     0.926715497
12.663472            0.318325482     0.928335506   0.000210478281 -8.91730535e-05    0.00021047828 -8.91730532e-05      0.323494752     0.926566617
12.6635              0.318714204     0.928188554   0.000210761932 -8.94040198e-05   0.000210761931 -8.94040195e-05      0.323882814     0.926417455
12.663528            0.319103147     0.928041322   0.000211045996 -8.96355837e-05   0.000211045995 -8.96355834e-05      0.324271095     0.926268013
12.663556            0.319492312      0.92789381   0.000211330474 -8.98677469e-05   0.000211330473 -8.98677466e-05      0.324659596     0.926118289
12.663584            0.319881698     0.927746017   0.000211615367  -9.0100511e-05   0.000211615366 -9.01005107e-05      0.325048318     0.925968283
12.663612            0.320271307     0.927597943   0.000211900675 -9.03338776e-05   0.000211900674 -9.03338774e-05       0.32543726     0.925817994
12.66364             0.320661138     0.927449588   0.000212186398 -9.05678485e-05   0.000212186397 -9.05678483e-05      0.325826423     0.925667422
12.663668             0.32105119      0.92730095   0.000212472538 -9.08024252e-05   0.000212472537  -9.0802425e-05      0.326215807     0.925516567
12.663696            0.321441466     0.927152029   0.000212759094 -9.10376095e-05   0.000212759093 -9.10376093e-05      0.326605411     0.925365427
12.663724            0.321831963     0.927002825   0.000213046067  -9.1273403e-05   0.000213046066 -9.12734028e-05      0.326995237     0.925214003
12.663752            0.322222684     0.926853338   0.000213333458 -9.15098074e-05   0.000213333457 -9.15098071e-05      0.327385284     0.925062294
12.66378             0.322613627     0.926703566   0.000213621267 -9.17468243e-05   0.000213621266  -9.1746824e-05      0.327775552     0.924910299
12.663808            0.323004793      0.92655351   0.000213909495 -9.19844554e-05   0.000213909494 -9.19844552e-05      0.328166041     0.924758018
12.663836            0.323396182     0.926403168   0.000214198142 -9.22227025e-05   0.000214198141 -9.22227023e-05      0.328556752      0.92460545
12.663864            0.323787795     0.926252541   0.000214487209 -9.24615672e-05   0.000214487208 -9.24615669e-05      0.328947685     0.924452595
12.663892             0.32417963     0.926101627   0.000214776696 -9.27010512e-05   0.000214776695 -9.27010509e-05       0.32933884     0.924299453
12.66392              0.32457169     0.925950427   0.000215066604 -9.29411562e-05   0.000215066603 -9.29411559e-05      0.329730216     0.924146022
12.663948            0.324963973      0.92579894   0.000215356933 -9.31818839e-05   0.000215356932 -9.31818837e-05      0.330121815     0.923992303
12.663976             0.32535648     0.925647164   0.000215647685 -9.34232361e-05   0.000215647684 -9.34232358e-05      0.330513637     0.923838295
12.664004             0.32574921     0.925495101   0.000215938858 -9.36652144e-05   0.000215938857 -9.36652141e-05       0.33090568     0.923683997
12.664032            0.326142165     0.925342749   0.000216230455 -9.39078206e-05   0.000216230454 -9.39078203e-05      0.331297947     0.923529409
12.66406             0.326535345     0.925190107   0.000216522475 -9.41510564e-05   0.000216522474 -9.41510561e-05      0.331690436      0.92337453
12.664088            0.326928748     0.925037176   0.000216814919 -9.43949235e-05   0.000216814918 -9.43949232e-05      0.332083148      0.92321936
12.664116            0.327322376     0.924883954   0.000217107788 -9.46394236e-05   0.000217107787 -9.46394234e-05      0.332476082     0.923063898
12.664144            0.327716229     0.924730442   0.000217401081 -9.48845586e-05    0.00021740108 -9.48845584e-05      0.332869241     0.922908144
12.664172            0.328110307     0.924576638     0.0002176948 -9.51303301e-05     0.0002176948 -9.51303299e-05      0.333262622     0.922752098
12.6642              0.328504609     0.924422543   0.000217988946   -9.537674e-05   0.000217988945 -9.53767397e-05      0.333656227     0.922595758
12.664228            0.328899137     0.924268155   0.000218283518 -9.56237899e-05   0.000218283517 -9.56237896e-05      0.334050055     0.922439124
12.664256             0.32929389     0.924113474   0.000218578516 -9.58714816e-05   0.000218578515 -9.58714813e-05      0.334444107     0.922282196
12.664284            0.329688868       0.9239585   0.000218873943 -9.61198169e-05   0.000218873942 -9.61198166e-05      0.334838384     0.922124973
12.664312            0.330084072     0.923803232   0.000219169798 -9.63687976e-05   0.000219169797 -9.63687973e-05      0.335232884     0.921967455
12.66434             0.330479502     0.923647669   0.000219466081 -9.66184254e-05    0.00021946608 -9.66184251e-05      0.335627608     0.921809641
12.664368            0.330875158     0.923491812   0.000219762794 -9.68687021e-05   0.000219762793 -9.68687018e-05      0.336022556      0.92165153
12.664396            0.331271039     0.923335659   0.000220059936 -9.71196295e-05   0.000220059935 -9.71196292e-05      0.336417729     0.921493123
12.664424            0.331667147      0.92317921   0.000220357509 -9.73712094e-05   0.000220357508 -9.73712092e-05      0.336813127     0.921334418
12.664452            0.332063481     0.923022464   0.000220655512 -9.76234437e-05   0.000220655511 -9.76234434e-05      0.337208749     0.921175415
12.66448             0.332460041     0.922865422   0.000220953947  -9.7876334e-05   0.000220953946 -9.78763337e-05      0.337604596     0.921016113
12.664508            0.332856828     0.922708082   0.000221252813 -9.81298822e-05   0.000221252812  -9.8129882e-05      0.338000668     0.920856513
12.664536            0.333253842     0.922550443   0.000221552112 -9.83840902e-05   0.000221552111 -9.83840899e-05      0.338396966     0.920696613
12.664564            0.333651082     0.922392506   0.000221851844 -9.86389597e-05   0.000221851843 -9.86389594e-05      0.338793488     0.920536413
12.664592             0.33404855      0.92223427   0.000222152009 -9.88944925e-05   0.000222152008 -9.88944923e-05      0.339190236     0.920375912
12.66462             0.334446244     0.922075734   0.000222452608 -9.91506906e-05   0.000222452607 -9.91506903e-05       0.33958721      0.92021511
12.664648            0.334844166     0.921916898   0.000222753641 -9.94075557e-05    0.00022275364 -9.94075554e-05      0.339984409     0.920054007
12.664676            0.335242315     0.921757761   0.000223055109 -9.96650896e-05   0.000223055108 -9.96650894e-05      0.340381834     0.919892601
12.664704            0.335640692     0.921598323   0.000223357013 -9.99232943e-05   0.000223357012  -9.9923294e-05      0.340779485     0.919730892
12.664732            0.336039297     0.921438582   0.000223659353 -0.000100182171   0.000223659352 -0.000100182171      0.341177362      0.91956888
12.66476             0.336438129      0.92127854   0.000223962129 -0.000100441723   0.000223962128 -0.000100441723      0.341575466     0.919406564
12.664788             0.33683719     0.921118194   0.000224265342 -0.000100701951   0.000224265341 -0.000100701951      0.341973796     0.919243944
12.664816            0.337236478     0.920957545   0.000224568993 -0.000100962857   0.000224568992 -0.000100962857      0.342372352     0.919081019
12.664844            0.337635995     0.920796592   0.000224873081 -0.000101224443    0.00022487308 -0.000101224443      0.342771135     0.918917788
12.664872            0.338035741     0.920635334   0.000225177609 -0.000101486711   0.000225177608 -0.000101486711      0.343170145     0.918754252
12.6649              0.338435714     0.920473772   0.000225482575 -0.000101749663   0.000225482574 -0.000101749663      0.343569382     0.918590408
12.664928            0.338835917     0.920311903   0.000225787981   -0.0001020133    0.00022578798   -0.0001020133      0.343968846     0.918426258
12.664956            0.339236349     0.920149728   0.000226093827 -0.000102277625   0.000226093826 -0.000102277625      0.344368537       0.9182618
12.664984            0.339637009     0.919987247   0.000226400114  -0.00010254264   0.000226400113 -0.000102542639      0.344768456     0.918097034
12.665012            0.340037899     0.919824458   0.000226706841 -0.000102808345    0.00022670684 -0.000102808345      0.345168602     0.917931958
12.66504             0.340439018     0.919661362   0.000227014011 -0.000103074744    0.00022701401 -0.000103074744      0.345568976     0.917766574
12.665068            0.340840366     0.919497957   0.000227321622 -0.000103341839   0.000227321621 -0.000103341838      0.345969577      0.91760088
12.665096            0.341241944     0.919334243   0.000227629676  -0.00010360963   0.000227629675  -0.00010360963      0.346370407     0.917434875
12.665124            0.341643751     0.919170219   0.000227938174  -0.00010387812   0.000227938173  -0.00010387812      0.346771465     0.917268559
12.665152            0.342045789     0.919005885   0.000228247115 -0.000104147312   0.000228247114 -0.000104147311       0.34717275     0.917101932
12.66518             0.342448056     0.918841241     0.0002285565 -0.000104417206   0.000228556499 -0.000104417206      0.347574265     0.916934993
12.665208            0.342850554     0.918676286    0.00022886633 -0.000104687805   0.000228866329 -0.000104687805      0.347976007     0.916767741
12.665236            0.343253282     0.918511018   0.000229176605 -0.000104959111   0.000229176604 -0.000104959111      0.348377979     0.916600175
12.665264             0.34365624     0.918345439   0.000229487326 -0.000105231125   0.000229487325 -0.000105231125      0.348780179     0.916432296
12.665292            0.344059429     0.918179546   0.000229798493 -0.000105503851   0.000229798492  -0.00010550385      0.349182608     0.916264103
12.66532             0.344462848     0.918013341   0.000230110107 -0.000105777289   0.000230110106 -0.000105777288      0.349585266     0.916095595
12.665348            0.344866499     0.917846821   0.000230422169 -0.000106051441   0.000230422168 -0.000106051441      0.349988153     0.915926771
12.665376             0.34527038     0.917679986   0.000230734677 -0.000106326311   0.000230734676  -0.00010632631       0.35039127     0.915757631
12.665404            0.345674493     0.917512837   0.000231047635 -0.000106601898   0.000231047634 -0.000106601898      0.350794616     0.915588175