! TOUCHSTONE file generated by CST MICROWAVE STUDIO
! Date and time: Wed Jul 31 19:05:31 2024
! Project name: WaveGuide_BPF-Ver4.1_U-shape_Ku_T3_C4_CWA_2.cst
! Parameters = {cavity_h=16; cavity_l0=10; cavity_l1=15.1911; cavity_l2=16.8827; cavity_l3=17.1078; cavity_l4=17.2768; cavity_l5=17.0914; cavity_l6=17.6204; cavity_r=2.5; cavity_screw_l=0.5; cavity_screw_r=1.5; cavity_w=8; iris_h00=0; iris_h01=8.8127; iris_h112=0; iris_h12=5.5918; iris_h211=3.6522; iris_h23=5.2128; iris_h310=3.9606; iris_h34=5.0755; iris_h45=4.9413; iris_h49=4.6163; iris_h56=4.8041; iris_h58=4.4397; iris_h67=6.593; iris_rx=0.1; iris_screw_l=0.5; iris_screw_r=1.5; iris_shift00=0; iris_shift112=0; iris_shift211=3.5; iris_shift310=0; iris_shift49=0; iris_shift58=3.5; iris_shift67=3.5; iris_tx=4.5; iris_tz=4.5; iris_w00=0; iris_w112=0; iris_w211=4; iris_w310=3.9606; iris_w49=4.6163; iris_w58=4; iris_w67=4; mesh_cavity=5; mesh_iris=7; mesh_screw=7; order=12; reset_all=0; sigma=4.8e+07}
! Header version: 2018
! Port assignment regex: !\s*Touchstone port\s*([0-9]+)\s*=\s*(CST MWS port|CST DS port)\s*([0-9]+|Zmin|Zmax)\s*\(\"(.*)\"\)(\s*mode\s*([0-9]+))?.*
! Touchstone port assignment:
! Touchstone port 1 = CST MWS port 1 ("")
! Touchstone port 2 = CST MWS port 2 ("")
# GHz S RI R 50
12.66                0.277636251     0.941466669   0.000312618737 -0.000120906383   0.000312618737 -0.000120906383      0.285285163     0.939130383
12.660028            0.278025757     0.941336962   0.000313126361  -0.00012126661   0.000313126361  -0.00012126661       0.28567626     0.938996582
12.660056            0.278415447     0.941206999   0.000313634966  -0.00012162793   0.000313634966  -0.00012162793      0.286067611     0.938862498
12.660084            0.278805356     0.941076768   0.000314144547 -0.000121990352   0.000314144547 -0.000121990352      0.286459221      0.93872813
12.660112            0.279195517     0.940946259   0.000314655105 -0.000122353885   0.000314655105 -0.000122353885      0.286851093     0.938593475
12.66014             0.279585962     0.940815463   0.000315166635 -0.000122718539   0.000315166635 -0.000122718539       0.28724323     0.938458533
12.660168            0.279976693     0.940684378   0.000315679141 -0.000123084318   0.000315679141 -0.000123084317      0.287635634     0.938323301
12.660196            0.280367687     0.940553011   0.000316192627  -0.00012345122   0.000316192627  -0.00012345122      0.288028303     0.938187782
12.660224            0.280758945     0.940421361   0.000316707096 -0.000123819251   0.000316707096 -0.000123819251      0.288421235     0.938051973
12.660252            0.281150467     0.940289427   0.000317222549 -0.000124188414   0.000317222549 -0.000124188414      0.288814433     0.937915875
12.66028             0.281542254     0.940157209   0.000317738988 -0.000124558714   0.000317738988 -0.000124558713      0.289207895     0.937779487
12.660308            0.281934305     0.940024707   0.000318256415 -0.000124930153   0.000318256415 -0.000124930153      0.289601623     0.937642808
12.660336            0.282326621     0.939891918   0.000318774833 -0.000125302735   0.000318774833 -0.000125302735      0.289995616     0.937505837
12.660364            0.282719202     0.939758844   0.000319294244 -0.000125676466   0.000319294244 -0.000125676466      0.290389875     0.937368575
12.660392            0.283112049     0.939625483   0.000319814649 -0.000126051348   0.000319814649 -0.000126051348        0.2907844      0.93723102
12.66042             0.283505162     0.939491835   0.000320336051 -0.000126427385   0.000320336051 -0.000126427385      0.291179191     0.937093171
12.660448             0.28389854     0.939357899   0.000320858452 -0.000126804582   0.000320858452 -0.000126804582       0.29157425     0.936955029
12.660476            0.284292185     0.939223675   0.000321381853 -0.000127182942   0.000321381853 -0.000127182942      0.291969575     0.936816593
12.660504            0.284686096     0.939089162   0.000321906258  -0.00012756247   0.000321906258  -0.00012756247      0.292365167     0.936677861
12.660532            0.285080274     0.938954359   0.000322431667 -0.000127943169   0.000322431667 -0.000127943168      0.292761027     0.936538834
12.66056              0.28547472     0.938819266   0.000322958084 -0.000128325043   0.000322958084 -0.000128325043      0.293157154      0.93639951
12.660588            0.285869433     0.938683882    0.00032348551 -0.000128708096    0.00032348551 -0.000128708096       0.29355355      0.93625989
12.660616            0.286264413     0.938548207   0.000324013947 -0.000129092333   0.000324013947 -0.000129092333      0.293950214     0.936119972
12.660644            0.286659662     0.938412239   0.000324543398 -0.000129477757   0.000324543398 -0.000129477757      0.294347147     0.935979756
12.660672            0.287055178     0.938275979   0.000325073864 -0.000129864372   0.000325073864 -0.000129864372      0.294744348     0.935839241
12.6607              0.287450964     0.938139426   0.000325605348 -0.000130252183   0.000325605348 -0.000130252183      0.295141819     0.935698427
12.660728            0.287847018     0.938002579   0.000326137851 -0.000130641194   0.000326137851 -0.000130641194      0.295539559     0.935557313
12.660756            0.288243341     0.937865438   0.000326671377 -0.000131031408   0.000326671377 -0.000131031408      0.295937569     0.935415899
12.660784            0.288639934     0.937728001   0.000327205926  -0.00013142283   0.000327205926  -0.00013142283      0.296335849     0.935274183
12.660812            0.289036797     0.937590269   0.000327741502 -0.000131815464   0.000327741502 -0.000131815464      0.296734399     0.935132165
12.66084             0.289433929     0.937452241   0.000328278106 -0.000132209314   0.000328278106 -0.000132209314       0.29713322     0.934989845
12.660868            0.289831332     0.937313915    0.00032881574 -0.000132604385    0.00032881574 -0.000132604385      0.297532312     0.934847221
12.660896            0.290229005     0.937175292   0.000329354408  -0.00013300068   0.000329354408  -0.00013300068      0.297931675     0.934704294
12.660924            0.290626949     0.937036371   0.000329894109 -0.000133398203   0.000329894109 -0.000133398203      0.298331309     0.934561063
12.660952            0.291025164     0.936897151   0.000330434848  -0.00013379696   0.000330434848 -0.000133796959      0.298731215     0.934417526
12.66098             0.291423651     0.936757632   0.000330976626 -0.000134196953   0.000330976626 -0.000134196953      0.299131393     0.934273684
12.661008            0.291822409     0.936617812   0.000331519445 -0.000134598188   0.000331519445 -0.000134598188      0.299531843     0.934129535
12.661036             0.29222144     0.936477692   0.000332063307 -0.000135000668   0.000332063307 -0.000135000668      0.299932566     0.933985079
12.661064            0.292620742     0.936337271   0.000332608215 -0.000135404398   0.000332608215 -0.000135404398      0.300333562     0.933840316
12.661092            0.293020317     0.936196547   0.000333154171 -0.000135809383   0.000333154171 -0.000135809383      0.300734831     0.933695245
12.66112             0.293420165     0.936055521   0.000333701176 -0.000136215626   0.000333701176 -0.000136215626      0.301136374     0.933549864
12.661148            0.293820287     0.935914192   0.000334249234 -0.000136623131   0.000334249234 -0.000136623131       0.30153819     0.933404174
12.661176            0.294220681     0.935772559   0.000334798346 -0.000137031904   0.000334798346 -0.000137031904       0.30194028     0.933258174
12.661204             0.29462135     0.935630622   0.000335348514 -0.000137441949   0.000335348514 -0.000137441949      0.302342644     0.933111863
12.661232            0.295022292     0.935488379   0.000335899741 -0.000137853269   0.000335899741 -0.000137853269      0.302745283      0.93296524
12.66126             0.295423509     0.935345831   0.000336452028  -0.00013826587   0.000336452028 -0.000138265869      0.303148197     0.932818306
12.661288               0.295825     0.935202976   0.000337005379 -0.000138679755   0.000337005379 -0.000138679755      0.303551386     0.932671058
12.661316            0.296226766     0.935059814   0.000337559795 -0.000139094929   0.000337559795 -0.000139094929      0.303954851     0.932523497
12.661344            0.296628807     0.934916344   0.000338115279 -0.000139511397   0.000338115279 -0.000139511397      0.304358591     0.932375622
12.661372            0.297031124     0.934772566   0.000338671832 -0.000139929164   0.000338671832 -0.000139929163      0.304762608     0.932227432
12.6614              0.297433717     0.934628479   0.000339229457 -0.000140348232   0.000339229457 -0.000140348232        0.3051669     0.932078926
12.661428            0.297836585     0.934484083   0.000339788156 -0.000140768608   0.000339788156 -0.000140768608      0.305571469     0.931930105
12.661456             0.29823973     0.934339376   0.000340347932 -0.000141190295   0.000340347932 -0.000141190295      0.305976316     0.931780966
12.661484            0.298643152     0.934194358   0.000340908786 -0.000141613298   0.000340908786 -0.000141613298      0.306381439      0.93163151
12.661512             0.29904685     0.934049028   0.000341470721 -0.000142037622   0.000341470721 -0.000142037622       0.30678684     0.931481736
12.66154             0.299450826     0.933903386   0.000342033739 -0.000142463271   0.000342033739 -0.000142463271      0.307192518     0.931331643
12.661568            0.299855079     0.933757431   0.000342597843  -0.00014289025   0.000342597843  -0.00014289025      0.307598475      0.93118123
12.661596             0.30025961     0.933611162   0.000343163033 -0.000143318564   0.000343163033 -0.000143318564       0.30800471     0.931030498
12.661624            0.300664419     0.933464579   0.000343729314 -0.000143748216   0.000343729314 -0.000143748216      0.308411223     0.930879444
12.661652            0.301069507     0.933317682   0.000344296687 -0.000144179212   0.000344296687 -0.000144179212      0.308818016     0.930728069
12.66168             0.301474873     0.933170468   0.000344865154 -0.000144611556   0.000344865154 -0.000144611556      0.309225088     0.930576371
12.661708            0.301880518     0.933022938   0.000345434718 -0.000145045253   0.000345434718 -0.000145045253      0.309632439     0.930424351
12.661736            0.302286442     0.932875091    0.00034600538 -0.000145480308    0.00034600538 -0.000145480308       0.31004007     0.930272007
12.661764            0.302692646     0.932726927   0.000346577144 -0.000145916726   0.000346577144 -0.000145916726      0.310447981     0.930119339
12.661792             0.30309913     0.932578444   0.000347150011  -0.00014635451   0.000347150011  -0.00014635451      0.310856173     0.929966345
12.66182             0.303505895     0.932429642   0.000347723983 -0.000146793666   0.000347723983 -0.000146793666      0.311264645     0.929813026
12.661848            0.303912939     0.932280521   0.000348299064 -0.000147234199   0.000348299064 -0.000147234199      0.311673399     0.929659381
12.661876            0.304320264     0.932131079   0.000348875255 -0.000147676114   0.000348875255 -0.000147676114      0.312082433     0.929505408
12.661904            0.304727871     0.931981316   0.000349452558 -0.000148119414   0.000349452558 -0.000148119414      0.312491749     0.929351108
12.661932            0.305135759     0.931831231   0.000350030977 -0.000148564106   0.000350030977 -0.000148564106      0.312901347     0.929196479
12.66196             0.305543928     0.931680824   0.000350610512 -0.000149010193   0.000350610512 -0.000149010193      0.313311228     0.929041521
12.661988            0.305952379     0.931530094   0.000351191167 -0.000149457681   0.000351191167 -0.000149457681       0.31372139     0.928886233
12.662016            0.306361113     0.931379039   0.000351772944 -0.000149906575   0.000351772944 -0.000149906575      0.314131836     0.928730615
12.662044            0.306770129     0.931227661   0.000352355844  -0.00015035688   0.000352355844  -0.00015035688      0.314542564     0.928574665
12.662072            0.307179428     0.931075957   0.000352939871 -0.000150808599   0.000352939871 -0.000150808599      0.314953576     0.928418383
12.6621              0.307589011     0.930923927   0.000353525027  -0.00015126174   0.000353525027  -0.00015126174      0.315364871     0.928261769
12.662128            0.307998876     0.930771571   0.000354111314 -0.000151716305   0.000354111314 -0.000151716305      0.315776451     0.928104821
12.662156            0.308409026     0.930618887   0.000354698734 -0.000152172301   0.000354698734 -0.000152172301      0.316188315     0.927947539
12.662184            0.308819459     0.930465875    0.00035528729 -0.000152629732    0.00035528729 -0.000152629732      0.316600463     0.927789921
12.662212            0.309230177     0.930312535   0.000355876985 -0.000153088603   0.000355876985 -0.000153088603      0.317012896     0.927631969
12.66224              0.30964118     0.930158865   0.000356467819  -0.00015354892   0.000356467819  -0.00015354892      0.317425614      0.92747368
12.662268            0.310052467     0.930004865   0.000357059796 -0.000154010687   0.000357059796 -0.000154010687      0.317838618     0.927315054
12.662296             0.31046404     0.929850534   0.000357652918  -0.00015447391   0.000357652918  -0.00015447391      0.318251907      0.92715609
12.662324            0.310875898     0.929695872   0.000358247188 -0.000154938593   0.000358247188 -0.000154938593      0.318665482     0.926996787
12.662352            0.311288042     0.929540877   0.000358842608 -0.000155404742   0.000358842608 -0.000155404742      0.319079344     0.926837146
12.66238             0.311700473     0.929385549    0.00035943918 -0.000155872361    0.00035943918 -0.000155872361      0.319493493     0.926677164
12.662408             0.31211319     0.929229888   0.000360036906 -0.000156341457   0.000360036906 -0.000156341457      0.319907928     0.926516842
12.662436            0.312526193     0.929073892   0.000360635789 -0.000156812033   0.000360635789 -0.000156812033      0.320322651     0.926356178
12.662464            0.312939484     0.928917561   0.000361235832 -0.000157284096   0.000361235832 -0.000157284096      0.320737661     0.926195172
12.662492            0.313353062     0.928760894   0.000361837036 -0.000157757651   0.000361837036 -0.000157757651      0.321152959     0.926033824
12.66252             0.313766928     0.928603891   0.000362439404 -0.000158232702   0.000362439404 -0.000158232702      0.321568545     0.925872131
12.662548            0.314181082      0.92844655   0.000363042939 -0.000158709255   0.000363042939 -0.000158709255      0.321984419     0.925710094
12.662576            0.314595524     0.928288871   0.000363647642 -0.000159187316   0.000363647642 -0.000159187316      0.322400583     0.925547712
12.662604            0.315010255     0.928130853   0.000364253517 -0.000159666889   0.000364253517 -0.000159666889      0.322817035     0.925384984
12.662632            0.315425275     0.927972496   0.000364860565  -0.00016014798   0.000364860565  -0.00016014798      0.323233777      0.92522191
12.66266             0.315840584     0.927813798    0.00036546879 -0.000160630594    0.00036546879 -0.000160630594      0.323650808     0.925058488
12.662688            0.316256182      0.92765476   0.000366078193 -0.000161114737   0.000366078193 -0.000161114737      0.324068129     0.924894717
12.662716             0.31667207      0.92749538   0.000366688777 -0.000161600414   0.000366688777 -0.000161600414      0.324485741     0.924730598
12.662744            0.317088249     0.927335657   0.000367300544  -0.00016208763   0.000367300544  -0.00016208763      0.324903643      0.92456613
12.662772            0.317504718     0.927175591   0.000367913497 -0.000162576391   0.000367913497 -0.000162576391      0.325321836      0.92440131
12.6628              0.317921477     0.927015181   0.000368527637 -0.000163066702   0.000368527637 -0.000163066702       0.32574032      0.92423614
12.662828            0.318338528     0.926854426   0.000369142969 -0.000163558569   0.000369142969 -0.000163558569      0.326159096     0.924070617
12.662856             0.31875587     0.926693326   0.000369759494 -0.000164051997   0.000369759494 -0.000164051997      0.326578163     0.923904742
12.662884            0.319173504     0.926531879   0.000370377213 -0.000164546992   0.000370377213 -0.000164546992      0.326997523     0.923738514
12.662912             0.31959143     0.926370086   0.000370996131 -0.000165043559   0.000370996131 -0.000165043559      0.327417175     0.923571931
12.66294             0.320009648     0.926207944   0.000371616249 -0.000165541704   0.000371616249 -0.000165541703       0.32783712     0.923404993
12.662968            0.320428159     0.926045454    0.00037223757 -0.000166041432    0.00037223757 -0.000166041432      0.328257357     0.923237699
12.662996            0.320846963     0.925882615   0.000372860097 -0.000166542749   0.000372860097 -0.000166542748      0.328677888     0.923070049
12.663024             0.32126606     0.925719426   0.000373483831  -0.00016704566   0.000373483831  -0.00016704566      0.329098713     0.922902041
12.663052             0.32168545     0.925555886   0.000374108775 -0.000167550172   0.000374108775 -0.000167550172      0.329519832     0.922733675
12.66308             0.322105135     0.925391995   0.000374734931 -0.000168056289   0.000374734931 -0.000168056289      0.329941244      0.92256495
12.663108            0.322525113     0.925227751   0.000375362303 -0.000168564018   0.000375362303 -0.000168564018      0.330362952     0.922395865
12.663136            0.322945386     0.925063154   0.000375990892 -0.000169073365   0.000375990892 -0.000169073365      0.330784954      0.92222642
12.663164            0.323365954     0.924898203   0.000376620702 -0.000169584334   0.000376620702 -0.000169584334      0.331207251     0.922056613
12.663192            0.323786817     0.924732897   0.000377251734 -0.000170096932   0.000377251734 -0.000170096932      0.331629844     0.921886445
12.66322             0.324207976     0.924567236   0.000377883991 -0.000170611164   0.000377883991 -0.000170611164      0.332052733     0.921715913
12.663248             0.32462943     0.924401219   0.000378517475 -0.000171127037   0.000378517475 -0.000171127037      0.332475918     0.921545018
12.663276             0.32505118     0.924234845    0.00037915219 -0.000171644556    0.00037915219 -0.000171644556      0.332899399     0.921373758
12.663304            0.325473227     0.924068112   0.000379788137 -0.000172163727   0.000379788137 -0.000172163726      0.333323177     0.921202133
12.663332             0.32589557     0.923901022   0.000380425319 -0.000172684555   0.000380425319 -0.000172684555      0.333747252     0.921030142
12.66336             0.326318211     0.923733572   0.000381063738 -0.000173207047   0.000381063738 -0.000173207047      0.334171624     0.920857784
12.663388            0.326741148     0.923565761   0.000381703398 -0.000173731209   0.000381703398 -0.000173731209      0.334596294     0.920685058
12.663416            0.327164383      0.92339759     0.0003823443 -0.000174257047     0.0003823443 -0.000174257046      0.335021262     0.920511963
12.663444            0.327587917     0.923229057   0.000382986447 -0.000174784565   0.000382986447 -0.000174784565      0.335446528     0.920338499
12.663472            0.328011748     0.923060161   0.000383629842 -0.000175313772   0.000383629842 -0.000175313772      0.335872093     0.920164665
12.6635              0.328435878     0.922890902   0.000384274487 -0.000175844672   0.000384274487 -0.000175844672      0.336297956      0.91999046
12.663528            0.328860307     0.922721279   0.000384920384 -0.000176377271   0.000384920384 -0.000176377271      0.336724119     0.919815884
12.663556            0.329285035     0.922551291   0.000385567537 -0.000176911576   0.000385567537 -0.000176911576      0.337150581     0.919640934
12.663584            0.329710063     0.922380937   0.000386215947 -0.000177447593   0.000386215947 -0.000177447592      0.337577344     0.919465611
12.663612            0.330135391     0.922210216   0.000386865618 -0.000177985327   0.000386865618 -0.000177985327      0.338004406     0.919289914
12.66364             0.330561019     0.922039128   0.000387516551 -0.000178524785   0.000387516552 -0.000178524785      0.338431769     0.919113842
12.663668            0.330986947     0.921867672    0.00038816875 -0.000179065973    0.00038816875 -0.000179065973      0.338859432     0.918937393
12.663696            0.331413176     0.921695847   0.000388822217 -0.000179608898   0.000388822217 -0.000179608898      0.339287397     0.918760568
12.663724            0.331839706     0.921523652   0.000389476954 -0.000180153565   0.000389476954 -0.000180153565      0.339715663     0.918583365
12.663752            0.332266538     0.921351086   0.000390132965  -0.00018069998   0.000390132965  -0.00018069998      0.340144231     0.918405784
12.66378             0.332693671     0.921178149   0.000390790251 -0.000181248151   0.000390790251  -0.00018124815      0.340573101     0.918227824
12.663808            0.333121107     0.921004839   0.000391448815 -0.000181798082   0.000391448815 -0.000181798082      0.341002273     0.918049483
12.663836            0.333548844     0.920831156    0.00039210866 -0.000182349781    0.00039210866 -0.000182349781      0.341431748     0.917870761
12.663864            0.333976885     0.920657099   0.000392769788 -0.000182903254   0.000392769788 -0.000182903254      0.341861526     0.917691658
12.663892            0.334405229     0.920482668   0.000393432202 -0.000183458507   0.000393432202 -0.000183458507      0.342291607     0.917512172
12.66392             0.334833876      0.92030786   0.000394095905 -0.000184015546   0.000394095905 -0.000184015546      0.342721992     0.917332302
12.663948            0.335262827     0.920132676   0.000394760898 -0.000184574378   0.000394760898 -0.000184574378       0.34315268     0.917152047
12.663976            0.335692081     0.919957115   0.000395427186  -0.00018513501   0.000395427186  -0.00018513501      0.343583673     0.916971408
12.664004             0.33612164     0.919781176   0.000396094769 -0.000185697448   0.000396094769 -0.000185697447      0.344014971     0.916790382
12.664032            0.336551504     0.919604857   0.000396763652 -0.000186261697   0.000396763652 -0.000186261697      0.344446573      0.91660897
12.66406             0.336981673     0.919428159   0.000397433836 -0.000186827766   0.000397433836 -0.000186827766      0.344878481     0.916427169
12.664088            0.337412147      0.91925108   0.000398105324  -0.00018739566   0.000398105324 -0.000187395659      0.345310694      0.91624498
12.664116            0.337842926     0.919073619   0.000398778119 -0.000187965385   0.000398778119 -0.000187965385      0.345743213     0.916062401
12.664144            0.338274012     0.918895776   0.000399452223 -0.000188536949   0.000399452223 -0.000188536949      0.346176038     0.915879432
12.664172            0.338705404     0.918717549   0.000400127639 -0.000189110358   0.000400127639 -0.000189110358       0.34660917     0.915696071
12.6642              0.339137102     0.918538938    0.00040080437 -0.000189685619    0.00040080437 -0.000189685619      0.347042608     0.915512318
12.664228            0.339569108     0.918359943   0.000401482418 -0.000190262739   0.000401482418 -0.000190262738      0.347476354     0.915328172
12.664256             0.34000142     0.918180561   0.000402161785 -0.000190841723   0.000402161786 -0.000190841723      0.347910407     0.915143632
12.664284            0.340434041     0.918000793   0.000402842476 -0.000191422579   0.000402842476 -0.000191422579      0.348344768     0.914958697
12.664312            0.340866969     0.917820637   0.000403524491 -0.000192005313   0.000403524491 -0.000192005313      0.348779437     0.914773366
12.66434             0.341300205     0.917640092   0.000404207834 -0.000192589933   0.000404207834 -0.000192589933      0.349214414     0.914587638
12.664368             0.34173375     0.917459158   0.000404892508 -0.000193176445   0.000404892508 -0.000193176445        0.3496497     0.914401513
12.664396            0.342167604     0.917277834   0.000405578514 -0.000193764856   0.000405578514 -0.000193764856      0.350085295      0.91421499
12.664424            0.342601767     0.917096119   0.000406265856 -0.000194355172   0.000406265856 -0.000194355172      0.350521199     0.914028067
12.664452            0.343036239     0.916914011   0.000406954537 -0.000194947401   0.000406954537 -0.000194947401      0.350957414     0.913840744
12.66448             0.343471022     0.916731511   0.000407644558  -0.00019554155   0.000407644558  -0.00019554155      0.351393938      0.91365302
12.664508            0.343906114     0.916548617   0.000408335924 -0.000196137625   0.000408335924 -0.000196137625      0.351830772     0.913464893
12.664536            0.344341517     0.916365328   0.000409028635 -0.000196735634   0.000409028635 -0.000196735634      0.352267917     0.913276364
12.664564            0.344777231     0.916181644   0.000409722696 -0.000197335583   0.000409722696 -0.000197335583      0.352705373     0.913087431
12.664592            0.345213256     0.915997563   0.000410418108  -0.00019793748   0.000410418108 -0.000197937479      0.353143141     0.912898093
12.66462             0.345649593     0.915813085   0.000411114875 -0.000198541331   0.000411114875 -0.000198541331       0.35358122     0.912708349
12.664648            0.346086242     0.915628208   0.000411812999 -0.000199147143   0.000411812999 -0.000199147143      0.354019611     0.912518198
12.664676            0.346523202     0.915442932   0.000412512483 -0.000199754925   0.000412512483 -0.000199754924      0.354458314      0.91232764
12.664704            0.346960475     0.915257257   0.000413213329 -0.000200364682   0.000413213329 -0.000200364682       0.35489733     0.912136674
12.664732            0.347398061      0.91507118    0.00041391554 -0.000200976422    0.00041391554 -0.000200976422      0.355336659     0.911945298
12.66476              0.34783596     0.914884701   0.000414619119 -0.000201590152   0.000414619119 -0.000201590152      0.355776301     0.911753511
12.664788            0.348274173     0.914697819   0.000415324068  -0.00020220588   0.000415324068  -0.00020220588      0.356216256     0.911561314
12.664816            0.348712699     0.914510534   0.000416030391 -0.000202823612   0.000416030391 -0.000202823612      0.356656526     0.911368704
12.664844             0.34915154     0.914322844    0.00041673809 -0.000203443357    0.00041673809 -0.000203443357       0.35709711     0.911175681
12.664872            0.349590695     0.914134748   0.000417447167  -0.00020406512   0.000417447167  -0.00020406512      0.357538008     0.910982243
12.6649              0.350030164     0.913946246   0.000418157626 -0.000204688911   0.000418157626  -0.00020468891      0.357979221     0.910788391
12.664928            0.350469949     0.913757337   0.000418869469 -0.000205314735   0.000418869469 -0.000205314735       0.35842075     0.910594123
12.664956             0.35091005     0.913568019   0.000419582698   -0.0002059426   0.000419582698   -0.0002059426      0.358862594     0.910399438
12.664984            0.351350466     0.913378291   0.000420297318 -0.000206572515   0.000420297318 -0.000206572514      0.359304753     0.910204334
12.665012            0.351791198     0.913188154   0.000421013329 -0.000207204485   0.000421013329 -0.000207204485      0.359747229     0.910008812
12.66504             0.352232247     0.912997605   0.000421730735  -0.00020783852   0.000421730735 -0.000207838519      0.360190022     0.909812871
12.665068            0.352673613     0.912806644   0.000422449539 -0.000208474625   0.000422449539 -0.000208474625      0.360633131     0.909616508
12.665096            0.353115296      0.91261527   0.000423169744  -0.00020911281   0.000423169744 -0.000209112809      0.361076558     0.909419723
12.665124            0.353557296     0.912423482   0.000423891352  -0.00020975308   0.000423891352  -0.00020975308      0.361520302     0.909222516
12.665152            0.353999614     0.912231279   0.000424614366 -0.000210395445   0.000424614366 -0.000210395445      0.361964364     0.909024885
12.66518              0.35444225      0.91203866   0.000425338788 -0.000211039912   0.000425338788 -0.000211039912      0.362408744      0.90882683
12.665208            0.354885205     0.911845625   0.000426064622 -0.000211686488   0.000426064622 -0.000211686487      0.362853442     0.908628349
12.665236            0.355328479     0.911652171    0.00042679187  -0.00021233518    0.00042679187  -0.00021233518       0.36329846     0.908429441
12.665264            0.355772071     0.911458299   0.000427520535 -0.000212985998   0.000427520535 -0.000212985998      0.363743796     0.908230106
12.665292            0.356215983     0.911264007    0.00042825062 -0.000213638948    0.00042825062 -0.000213638948      0.364189452     0.908030342
12.66532             0.356660215     0.911069294   0.000428982127 -0.000214294039   0.000428982127 -0.000214294039      0.364635428     0.907830148
12.665348            0.357104768     0.910874159    0.00042971506 -0.000214951278    0.00042971506 -0.000214951278      0.365081724     0.907629524
12.665376             0.35754964     0.910678602    0.00043044942 -0.000215610673    0.00043044942 -0.000215610672       0.36552834     0.907428468
12.665404            0.357994834     0.910482621   0.000431185212 -0.000216272231   0.000431185212 -0.000216272231      0.365975277      0.90722698