! TOUCHSTONE file generated by CST MICROWAVE STUDIO
! Date and time: Wed Jul 31 19:15:07 2024
! Project name: WaveGuide_BPF-Ver4.1_U-shape_Ku_T3_C4_CWA_2.cst
! Parameters = {cavity_h=16; cavity_l0=10; cavity_l1=15.232; cavity_l2=16.8525; cavity_l3=17.1352; cavity_l4=17.2266; cavity_l5=17.0977; cavity_l6=17.6213; cavity_r=2.5; cavity_screw_l=0.5; cavity_screw_r=1.5; cavity_w=8; iris_h00=0; iris_h01=8.7997; iris_h112=0; iris_h12=5.5967; iris_h211=3.6645; iris_h23=5.2118; iris_h310=3.9679; iris_h34=5.0687; iris_h45=4.9314; iris_h49=4.6111; iris_h56=4.8004; iris_h58=4.4437; iris_h67=6.577; iris_rx=0.1; iris_screw_l=0.5; iris_screw_r=1.5; iris_shift00=0; iris_shift112=0; iris_shift211=3.5; iris_shift310=0; iris_shift49=0; iris_shift58=3.5; iris_shift67=3.5; iris_tx=4.5; iris_tz=4.5; iris_w00=0; iris_w112=0; iris_w211=4; iris_w310=3.9679; iris_w49=4.6111; iris_w58=4; iris_w67=4; mesh_cavity=5; mesh_iris=7; mesh_screw=7; order=12; reset_all=0; sigma=4.8e+07}
! Header version: 2018
! Port assignment regex: !\s*Touchstone port\s*([0-9]+)\s*=\s*(CST MWS port|CST DS port)\s*([0-9]+|Zmin|Zmax)\s*\(\"(.*)\"\)(\s*mode\s*([0-9]+))?.*
! Touchstone port assignment:
! Touchstone port 1 = CST MWS port 1 ("")
! Touchstone port 2 = CST MWS port 2 ("")
# GHz S RI R 50
12.66                0.382547522     0.900095056   0.000289231733 -0.000148830753   0.000289231733 -0.000148830753      0.381669772     0.900591658
12.660028            0.382997305     0.899884556   0.000289640001 -0.000149236524   0.000289640001 -0.000149236524      0.382117589      0.90038267
12.660056            0.383447389     0.899673625   0.000290048843 -0.000149643442   0.000290048842 -0.000149643442      0.382565764     0.900173233
12.660084            0.383897761     0.899462269   0.000290458266 -0.000150051504   0.000290458266 -0.000150051504      0.383014258     0.899963361
12.660112            0.384348407     0.899250493    0.00029086828 -0.000150460708   0.000290868279 -0.000150460707      0.383463033     0.899753068
12.66014             0.384799314     0.899038302   0.000291278891  -0.00015087105   0.000291278891 -0.000150871049      0.383912052     0.899542371
12.660168             0.38525048     0.898825695   0.000291690102 -0.000151282533   0.000291690101 -0.000151282533      0.384361314     0.899331268
12.660196            0.385701917     0.898612667   0.000292101906 -0.000151695167   0.000292101906 -0.000151695167      0.384810846     0.899119747
12.660224            0.386153624     0.898399217   0.000292514306 -0.000152108953   0.000292514305 -0.000152108953      0.385260647     0.898907809
12.660252              0.3866056     0.898185345     0.0002929273 -0.000152523896     0.0002929273 -0.000152523895      0.385710717     0.898695452
12.66028             0.387057847      0.89797105   0.000293340891 -0.000152939998   0.000293340891 -0.000152939998      0.386161057     0.898482675
12.660308            0.387510364     0.897756331   0.000293755078 -0.000153357264   0.000293755078 -0.000153357264      0.386611667     0.898269477
12.660336            0.387963152     0.897541187   0.000294169863 -0.000153775696   0.000294169862 -0.000153775696      0.387062546     0.898055859
12.660364             0.38841621     0.897325617   0.000294585244 -0.000154195299   0.000294585244 -0.000154195299      0.387513695     0.897841818
12.660392            0.388869539     0.897109621   0.000295001224 -0.000154616076   0.000295001224 -0.000154616076      0.387965115     0.897627355
12.66042             0.389323139     0.896893198   0.000295417803  -0.00015503803   0.000295417802  -0.00015503803      0.388416805     0.897412467
12.660448             0.38977701     0.896676346   0.000295834981 -0.000155461165    0.00029583498 -0.000155461164      0.388868765     0.897197156
12.660476            0.390231152     0.896459065   0.000296252758 -0.000155885484   0.000296252758 -0.000155885483      0.389320995     0.896981419
12.660504            0.390685566     0.896241354   0.000296671136 -0.000156310991   0.000296671136  -0.00015631099      0.389773496     0.896765255
12.660532             0.39114025     0.896023213   0.000297090115 -0.000156737689   0.000297090114 -0.000156737689      0.390226268     0.896548665
12.66056             0.391595206      0.89580464   0.000297509695 -0.000157165583   0.000297509695 -0.000157165582      0.390679311     0.896331646
12.660588            0.392050434     0.895585635   0.000297929877 -0.000157594675   0.000297929877 -0.000157594675      0.391132625     0.896114199
12.660616            0.392505934     0.895366196   0.000298350662 -0.000158024969   0.000298350662 -0.000158024969       0.39158621     0.895896323
12.660644            0.392961706     0.895146324    0.00029877205 -0.000158456469   0.000298772049 -0.000158456469      0.392040066     0.895678016
12.660672            0.393417749     0.894926016   0.000299194041 -0.000158889179    0.00029919404 -0.000158889179      0.392494194     0.895459278
12.6607              0.393874065     0.894705273   0.000299616636 -0.000159323102   0.000299616636 -0.000159323101      0.392948593     0.895240108
12.660728            0.394330653     0.894484093   0.000300039836 -0.000159758241   0.000300039836 -0.000159758241      0.393403264     0.895020504
12.660756            0.394787513     0.894262475   0.000300463641 -0.000160194601   0.000300463641   -0.0001601946      0.393858207     0.894800467
12.660784            0.395244646      0.89404042   0.000300888052 -0.000160632184   0.000300888051 -0.000160632184      0.394313422     0.894579996
12.660812            0.395702052     0.893817925   0.000301313069 -0.000161070996   0.000301313068 -0.000161070995      0.394768909     0.894359089
12.66084             0.396159731      0.89359499   0.000301738692 -0.000161511038   0.000301738692 -0.000161511038      0.395224668     0.894137745
12.660868            0.396617682     0.893371614   0.000302164923 -0.000161952316   0.000302164922 -0.000161952316      0.395680699     0.893915965
12.660896            0.397075906     0.893147796   0.000302591761 -0.000162394833   0.000302591761 -0.000162394833      0.396137003     0.893693746
12.660924            0.397534404     0.892923536   0.000303019208 -0.000162838592   0.000303019207 -0.000162838592      0.396593579     0.893471089
12.660952            0.397993175     0.892698832   0.000303447263 -0.000163283597   0.000303447263 -0.000163283597      0.397050428     0.893247991
12.66098             0.398452219     0.892473683   0.000303875928 -0.000163729853   0.000303875927 -0.000163729853       0.39750755     0.893024453
12.661008            0.398911537      0.89224809   0.000304305202 -0.000164177362   0.000304305202 -0.000164177362      0.397964945     0.892800474
12.661036            0.399371128      0.89202205   0.000304735087 -0.000164626128   0.000304735086 -0.000164626128      0.398422613     0.892576052
12.661064            0.399830993     0.891795563   0.000305165582 -0.000165076156   0.000305165582 -0.000165076156      0.398880554     0.892351187
12.661092            0.400291133     0.891568628   0.000305596689 -0.000165527449   0.000305596689 -0.000165527449      0.399338768     0.892125878
12.66112             0.400751546     0.891341245   0.000306028408 -0.000165980011   0.000306028407 -0.000165980011      0.399797256     0.891900124
12.661148            0.401212233     0.891113412   0.000306460738 -0.000166433846   0.000306460738 -0.000166433845      0.400256017     0.891673924
12.661176            0.401673194     0.890885128   0.000306893682 -0.000166888957   0.000306893681 -0.000166888956      0.400715052     0.891447277
12.661204             0.40213443     0.890656393   0.000307327238 -0.000167345348   0.000307327238 -0.000167345348      0.401174361     0.891220183
12.661232            0.402595941     0.890427205   0.000307761408 -0.000167803024   0.000307761408 -0.000167803023      0.401633944      0.89099264
12.66126             0.403057726     0.890197564   0.000308196193 -0.000168261987   0.000308196192 -0.000168261987      0.402093801     0.890764648
12.661288            0.403519785      0.88996747   0.000308631592 -0.000168722243   0.000308631591 -0.000168722243      0.402553932     0.890536205
12.661316             0.40398212      0.88973692   0.000309067606 -0.000169183795   0.000309067606 -0.000169183794      0.403014338     0.890307312
12.661344            0.404444729     0.889505914   0.000309504236 -0.000169646646   0.000309504236 -0.000169646646      0.403475018     0.890077966
12.661372            0.404907614     0.889274451   0.000309941482 -0.000170110801   0.000309941482 -0.000170110801      0.403935972     0.889848167
12.6614              0.405370774     0.889042531   0.000310379345 -0.000170576263   0.000310379344 -0.000170576263      0.404397201     0.889617915
12.661428            0.405834209     0.888810152   0.000310817824 -0.000171043038   0.000310817824 -0.000171043037      0.404858705     0.889387208
12.661456            0.406297919     0.888577313   0.000311256921 -0.000171511127   0.000311256921 -0.000171511127      0.405320484     0.889156045
12.661484            0.406761905     0.888344014   0.000311696636 -0.000171980536   0.000311696636 -0.000171980536      0.405782537     0.888924425
12.661512            0.407226167     0.888110254   0.000312136969 -0.000172451269   0.000312136969 -0.000172451269      0.406244866     0.888692349
12.66154             0.407690704     0.887876032   0.000312577922 -0.000172923329   0.000312577921 -0.000172923329       0.40670747     0.888459813
12.661568            0.408155518     0.887641346   0.000313019493  -0.00017339672   0.000313019493  -0.00017339672       0.40717035     0.888226819
12.661596            0.408620607     0.887406196   0.000313461684 -0.000173871447   0.000313461684 -0.000173871447      0.407633505     0.887993364
12.661624            0.409085972     0.887170581   0.000313904496 -0.000174347514   0.000313904495 -0.000174347513      0.408096936     0.887759449
12.661652            0.409551614     0.886934501   0.000314347928 -0.000174824923   0.000314347927 -0.000174824923      0.408560642     0.887525071
12.66168             0.410017532     0.886697953   0.000314791981 -0.000175303681    0.00031479198 -0.000175303681      0.409024624     0.887290231
12.661708            0.410483726     0.886460938   0.000315236656  -0.00017578379   0.000315236655  -0.00017578379      0.409488882     0.887054926
12.661736            0.410950197     0.886223453   0.000315681952 -0.000176265255   0.000315681952 -0.000176265255      0.409953417     0.886819157
12.661764            0.411416945       0.8859855   0.000316127871  -0.00017674808   0.000316127871 -0.000176748079      0.410418227     0.886582923
12.661792            0.411883969     0.885747075   0.000316574413 -0.000177232268   0.000316574412 -0.000177232268      0.410883314     0.886346221
12.66182              0.41235127      0.88550818   0.000317021578 -0.000177717825   0.000317021577 -0.000177717825      0.411348677     0.886109052
12.661848            0.412818849     0.885268811   0.000317469367 -0.000178204754   0.000317469366 -0.000178204753      0.411814316     0.885871415
12.661876            0.413286704      0.88502897   0.000317917779 -0.000178693059   0.000317917779 -0.000178693059      0.412280233     0.885633309
12.661904            0.413754836     0.884788654   0.000318366817 -0.000179182745   0.000318366816 -0.000179182744      0.412746426     0.885394732
12.661932            0.414223246     0.884547863   0.000318816479 -0.000179673815   0.000318816478 -0.000179673815      0.413212895     0.885155683
12.66196             0.414691933     0.884306595   0.000319266766 -0.000180166274   0.000319266766 -0.000180166274      0.413679642     0.884916163
12.661988            0.415160898     0.884064851   0.000319717679 -0.000180660126   0.000319717679 -0.000180660126      0.414146666      0.88467617
12.662016             0.41563014     0.883822628   0.000320169219 -0.000181155376   0.000320169218 -0.000181155376      0.414613967     0.884435702
12.662044             0.41609966     0.883579926   0.000320621384 -0.000181652027   0.000320621384 -0.000181652027      0.415081545      0.88419476
12.662072            0.416569458     0.883336744   0.000321074177 -0.000182150084   0.000321074176 -0.000182150083      0.415549401     0.883953341
12.6621              0.417039534     0.883093082   0.000321527597  -0.00018264955   0.000321527596  -0.00018264955      0.416017534     0.883711446
12.662128            0.417509888     0.882848937   0.000321981645 -0.000183150431   0.000321981644 -0.000183150431      0.416485945     0.883469073
12.662156             0.41798052     0.882604309    0.00032243632 -0.000183652731    0.00032243632 -0.000183652731      0.416954633     0.883226221
12.662184             0.41845143     0.882359198   0.000322891624 -0.000184156453   0.000322891624 -0.000184156453        0.4174236     0.882982889
12.662212            0.418922618     0.882113602   0.000323347557 -0.000184661603   0.000323347557 -0.000184661603      0.417892844     0.882739076
12.66224             0.419394085      0.88186752    0.00032380412 -0.000185168184   0.000323804119 -0.000185168184      0.418362366     0.882494782
12.662268            0.419865831     0.881620951   0.000324261311 -0.000185676201   0.000324261311   -0.0001856762      0.418832167     0.882250006
12.662296            0.420337855     0.881373895   0.000324719133 -0.000186185658   0.000324719132 -0.000186185657      0.419302245     0.882004745
12.662324            0.420810158      0.88112635   0.000325177585 -0.000186696559   0.000325177584 -0.000186696559      0.419772602        0.881759
12.662352             0.42128274     0.880878315   0.000325636668 -0.000187208909   0.000325636667 -0.000187208909      0.420243237      0.88151277
12.66238               0.4217556     0.880629789   0.000326096381 -0.000187722713   0.000326096381 -0.000187722713      0.420714151     0.881266053
12.662408             0.42222874     0.880380772   0.000326556726 -0.000188237974   0.000326556726 -0.000188237974      0.421185344     0.881018849
12.662436            0.422702159     0.880131263   0.000327017703 -0.000188754698   0.000327017702 -0.000188754697      0.421656815     0.880771156
12.662464            0.423175857     0.879881259   0.000327479312 -0.000189272888   0.000327479311 -0.000189272887      0.422128565     0.880522973
12.662492            0.423649834     0.879630761   0.000327941553 -0.000189792549   0.000327941552 -0.000189792548      0.422600595     0.880274301
12.66252              0.42412409     0.879379768   0.000328404427 -0.000190313685   0.000328404426 -0.000190313685      0.423072903     0.880025137
12.662548            0.424598627     0.879128278   0.000328867933 -0.000190836301   0.000328867933 -0.000190836301       0.42354549      0.87977548
12.662576            0.425073442      0.87887629   0.000329332074 -0.000191360402   0.000329332073 -0.000191360402      0.424018356      0.87952533
12.662604            0.425548538     0.878623804   0.000329796848 -0.000191885992   0.000329796847 -0.000191885992      0.424491502     0.879274686
12.662632            0.426023913     0.878370818   0.000330262256 -0.000192413075   0.000330262255 -0.000192413075      0.424964928     0.879023547
12.66266             0.426499568     0.878117332   0.000330728298 -0.000192941656   0.000330728298 -0.000192941656      0.425438632     0.878771911
12.662688            0.426975503     0.877863344   0.000331194975  -0.00019347174   0.000331194975  -0.00019347174      0.425912617     0.878519778
12.662716            0.427451718     0.877608853   0.000331662287 -0.000194003331   0.000331662287  -0.00019400333      0.426386881     0.878267146
12.662744            0.427928213     0.877353859   0.000332130235 -0.000194536433   0.000332130234 -0.000194536433      0.426861425     0.878014015
12.662772            0.428404989     0.877098361   0.000332598817 -0.000195071052   0.000332598817 -0.000195071052      0.427336249     0.877760384
12.6628              0.428882045     0.876842356   0.000333068036 -0.000195607191   0.000333068036 -0.000195607191      0.427811353     0.877506252
12.662828            0.429359381     0.876585845   0.000333537891 -0.000196144857   0.000333537891 -0.000196144856      0.428286736     0.877251617
12.662856            0.429836997     0.876328827   0.000334008382 -0.000196684052   0.000334008382 -0.000196684052      0.428762401     0.876996478
12.662884            0.430314895       0.8760713    0.00033447951 -0.000197224782    0.00033447951 -0.000197224782      0.429238345     0.876740836
12.662912            0.430793073     0.875813263   0.000334951276 -0.000197767051   0.000334951275 -0.000197767051       0.42971457     0.876484688
12.66294             0.431271531     0.875554715   0.000335423678 -0.000198310865   0.000335423677 -0.000198310865      0.430191075     0.876228033
12.662968            0.431750271     0.875295656   0.000335896718 -0.000198856227   0.000335896717 -0.000198856227       0.43066786     0.875970872
12.662996            0.432229291     0.875036083   0.000336370395 -0.000199403143   0.000336370395 -0.000199403143      0.431144927     0.875713201
12.663024            0.432708592     0.874775997   0.000336844711 -0.000199951618   0.000336844711 -0.000199951617      0.431622274     0.875455021
12.663052            0.433188175     0.874515397   0.000337319665 -0.000200501655   0.000337319665 -0.000200501655      0.432099902     0.875196331
12.66308             0.433668038      0.87425428   0.000337795258  -0.00020105326   0.000337795257  -0.00020105326       0.43257781     0.874937129
12.663108            0.434148183     0.873992646   0.000338271489 -0.000201606437   0.000338271489 -0.000201606437         0.433056     0.874677415
12.663136            0.434628609     0.873730495    0.00033874836 -0.000202161192   0.000338748359 -0.000202161192      0.433534471     0.874417187
12.663164            0.435109317     0.873467824   0.000339225869 -0.000202717529   0.000339225869 -0.000202717529      0.434013223     0.874156445
12.663192            0.435590306     0.873204633   0.000339704019 -0.000203275453   0.000339704018 -0.000203275453      0.434492256     0.873895186
12.66322             0.436071576     0.872940922   0.000340182808 -0.000203834969   0.000340182807 -0.000203834969       0.43497157     0.873633411
12.663248            0.436553128     0.872676688   0.000340662237 -0.000204396082   0.000340662236 -0.000204396081      0.435451166     0.873371118
12.663276            0.437034962      0.87241193   0.000341142306 -0.000204958796   0.000341142306 -0.000204958795      0.435931043     0.873108307
12.663304            0.437517078     0.872146649   0.000341623016 -0.000205523116   0.000341623015 -0.000205523116      0.436411202     0.872844976
12.663332            0.437999475     0.871880842   0.000342104366 -0.000206089047   0.000342104365 -0.000206089047      0.436891642     0.872581123
12.66336             0.438482154     0.871614509   0.000342586357 -0.000206656595   0.000342586356 -0.000206656595      0.437372364     0.872316749
12.663388            0.438965116     0.871347648   0.000343068989 -0.000207225764   0.000343068988 -0.000207225764      0.437853368     0.872051852
12.663416            0.439448359     0.871080259   0.000343552262 -0.000207796559   0.000343552262 -0.000207796559      0.438334654      0.87178643
12.663444            0.439931885      0.87081234   0.000344036177 -0.000208368985   0.000344036176 -0.000208368985      0.438816222     0.871520484
12.663472            0.440415693     0.870543891   0.000344520733 -0.000208943047   0.000344520732 -0.000208943046      0.439298072     0.871254011
12.6635              0.440899783     0.870274909   0.000345005931  -0.00020951875    0.00034500593 -0.000209518749      0.439780203     0.870987011
12.663528            0.441384155     0.870005395   0.000345491771 -0.000210096099    0.00034549177 -0.000210096098      0.440262617     0.870719482
12.663556             0.44186881     0.869735347   0.000345978253 -0.000210675099   0.000345978252 -0.000210675098      0.440745314     0.870451425
12.663584            0.442353747     0.869464764   0.000346465377 -0.000211255754   0.000346465376 -0.000211255754      0.441228292     0.870182836
12.663612            0.442838967     0.869193645   0.000346953143 -0.000211838072   0.000346953143 -0.000211838071      0.441711553     0.869913716
12.66364              0.44332447     0.868921989   0.000347441553 -0.000212422055   0.000347441552 -0.000212422055      0.442195097     0.869644064
12.663668            0.443810255     0.868649794   0.000347930604 -0.000213007709   0.000347930604 -0.000213007709      0.442678922     0.869373878
12.663696            0.444296323      0.86837706   0.000348420299  -0.00021359504   0.000348420298  -0.00021359504      0.443163031     0.869103156
12.663724            0.444782674     0.868103786   0.000348910636 -0.000214184053   0.000348910636 -0.000214184052      0.443647422     0.868831899
12.663752            0.445269308      0.86782997   0.000349401617 -0.000214774752   0.000349401616 -0.000214774751      0.444132096     0.868560105
12.66378             0.445756224     0.867555611   0.000349893241 -0.000215367142    0.00034989324 -0.000215367142      0.444617053     0.868287773
12.663808            0.446243424     0.867280709   0.000350385508  -0.00021596123   0.000350385507  -0.00021596123      0.445102292     0.868014902
12.663836            0.446730906     0.867005262   0.000350878419  -0.00021655702   0.000350878418  -0.00021655702      0.445587815     0.867741491
12.663864            0.447218672     0.866729268   0.000351371973 -0.000217154517   0.000351371972 -0.000217154517       0.44607362     0.867467538
12.663892            0.447706721     0.866452728    0.00035186617 -0.000217753727    0.00035186617 -0.000217753726      0.446559709     0.867193042
12.66392             0.448195053      0.86617564   0.000352361012 -0.000218354654   0.000352361011 -0.000218354654      0.447046081     0.866918003
12.663948            0.448683669     0.865898002   0.000352856497 -0.000218957305   0.000352856497 -0.000218957304      0.447532736     0.866642419
12.663976            0.449172568     0.865619814   0.000353352626 -0.000219561684   0.000353352626 -0.000219561683      0.448019674      0.86636629
12.664004             0.44966175     0.865341074     0.0003538494 -0.000220167796   0.000353849399 -0.000220167796      0.448506895     0.866089613
12.664032            0.450151216     0.865061781   0.000354346817 -0.000220775647   0.000354346816 -0.000220775647        0.4489944     0.865812389
12.66406             0.450640965     0.864781935   0.000354844878 -0.000221385243   0.000354844877 -0.000221385243      0.449482189     0.865534615
12.664088            0.451130998     0.864501534   0.000355343583 -0.000221996588   0.000355343583 -0.000221996588       0.44997026     0.865256291
12.664116            0.451621314     0.864220576   0.000355842933 -0.000222609688   0.000355842932 -0.000222609688      0.450458616     0.864977416
12.664144            0.452111915     0.863939062   0.000356342927 -0.000223224549   0.000356342926 -0.000223224548      0.450947255     0.864697988
12.664172            0.452602798     0.863656989   0.000356843565 -0.000223841175   0.000356843564 -0.000223841174      0.451436177     0.864418006
12.6642              0.453093966     0.863374356   0.000357344848 -0.000224459572   0.000357344847 -0.000224459571      0.451925384      0.86413747
12.664228            0.453585418     0.863091163   0.000357846774 -0.000225079745   0.000357846774 -0.000225079745      0.452414874     0.863856377
12.664256            0.454077153     0.862807408   0.000358349346 -0.000225701701   0.000358349345   -0.0002257017      0.452904648     0.863574728
12.664284            0.454569172      0.86252309   0.000358852561 -0.000226325444    0.00035885256 -0.000226325443      0.453394706      0.86329252
12.664312            0.455061475     0.862238208   0.000359356421 -0.000226950979    0.00035935642 -0.000226950979      0.453885048     0.863009753
12.66434             0.455554063     0.861952761   0.000359860925 -0.000227578314   0.000359860925 -0.000227578313      0.454375673     0.862726425
12.664368            0.456046934     0.861666748   0.000360366074 -0.000228207452   0.000360366073 -0.000228207451      0.454866583     0.862442536
12.664396            0.456540089     0.861380167   0.000360871867 -0.000228838399   0.000360871866 -0.000228838399      0.455357777     0.862158084
12.664424            0.457033529     0.861093017   0.000361378304 -0.000229471161   0.000361378304 -0.000229471161      0.455849255     0.861873068
12.664452            0.457527252     0.860805297   0.000361885386 -0.000230105744   0.000361885385 -0.000230105744      0.456341017     0.861587487
12.66448              0.45802126     0.860517006   0.000362393112 -0.000230742153   0.000362393111 -0.000230742153      0.456833064     0.861301339
12.664508            0.458515553     0.860228143   0.000362901482 -0.000231380394   0.000362901481 -0.000231380394      0.457325395     0.861014625
12.664536            0.459010129     0.859938706   0.000363410496 -0.000232020472   0.000363410495 -0.000232020472       0.45781801     0.860727341
12.664564             0.45950499     0.859648695   0.000363920154 -0.000232662393   0.000363920154 -0.000232662393      0.458310909     0.860439488
12.664592            0.460000135     0.859358108   0.000364430457 -0.000233306162   0.000364430456 -0.000233306162      0.458804093     0.860151063
12.66462             0.460495565     0.859066944   0.000364941403 -0.000233951786   0.000364941403 -0.000233951786      0.459297561     0.859862067
12.664648            0.460991279     0.858775202   0.000365452993  -0.00023459927   0.000365452993  -0.00023459927      0.459791314     0.859572497
12.664676            0.461487277     0.858482881   0.000365965228 -0.000235248619   0.000365965227 -0.000235248619      0.460285351     0.859282353
12.664704             0.46198356     0.858189979   0.000366478105  -0.00023589984   0.000366478105  -0.00023589984      0.460779673     0.858991633
12.664732            0.462480128     0.857896495   0.000366991627 -0.000236552938   0.000366991626 -0.000236552938       0.46127428     0.858700337
12.66476              0.46297698     0.857602428   0.000367505792 -0.000237207919   0.000367505791 -0.000237207919      0.461769171     0.858408462
12.664788            0.463474116     0.857307778     0.0003680206 -0.000237864789     0.0003680206 -0.000237864788      0.462264347     0.858116008
12.664816            0.463971538     0.857012542   0.000368536052 -0.000238523553   0.000368536051 -0.000238523552      0.462759807     0.857822973
12.664844            0.464469244     0.856716719   0.000369052147 -0.000239184217   0.000369052146 -0.000239184217      0.463255553     0.857529357
12.664872            0.464967234     0.856420309   0.000369568885 -0.000239846787   0.000369568884 -0.000239846787      0.463751583     0.857235158
12.6649               0.46546551     0.856123309   0.000370086265  -0.00024051127   0.000370086265  -0.00024051127      0.464247898     0.856940375
12.664928             0.46596407      0.85582572   0.000370604289  -0.00024117767   0.000370604288  -0.00024117767      0.464744497     0.856645007
12.664956            0.466462915     0.855527539   0.000371122955 -0.000241845994   0.000371122954 -0.000241845994      0.465241382     0.856349052
12.664984            0.466962044     0.855228766   0.000371642263 -0.000242516248   0.000371642262 -0.000242516248      0.465738552      0.85605251
12.665012            0.467461459     0.854929398   0.000372162214 -0.000243188437   0.000372162213 -0.000243188437      0.466236006     0.855755378
12.66504             0.467961158     0.854629436   0.000372682806 -0.000243862568   0.000372682806 -0.000243862568      0.466733745     0.855457657
12.665068            0.468461142     0.854328877   0.000373204041 -0.000244538646    0.00037320404 -0.000244538646       0.46723177     0.855159344
12.665096            0.468961411     0.854027721   0.000373725917 -0.000245216678   0.000373725916 -0.000245216678      0.467730079     0.854860439
12.665124            0.469461965     0.853725966   0.000374248434  -0.00024589667   0.000374248434 -0.000245896669      0.468228674      0.85456094
12.665152            0.469962803     0.853423611   0.000374771593 -0.000246578626   0.000374771592 -0.000246578626      0.468727553     0.854260846
12.66518             0.470463927     0.853120655   0.000375295393 -0.000247262555   0.000375295392 -0.000247262555      0.469226718     0.853960156
12.665208            0.470965336     0.852817096   0.000375819833 -0.000247948461   0.000375819832 -0.000247948461      0.469726168     0.853658868
12.665236            0.471467029     0.852512933   0.000376344914 -0.000248636351   0.000376344913  -0.00024863635      0.470225903     0.853356982
12.665264            0.471969007     0.852208166   0.000376870635  -0.00024932623   0.000376870634  -0.00024932623      0.470725923     0.853054495
12.665292            0.472471271     0.851902792   0.000377396996 -0.000250018106   0.000377396996 -0.000250018106      0.471226228     0.852751407
12.66532             0.472973819     0.851596811   0.000377923997 -0.000250711984   0.000377923997 -0.000250711983      0.471726818     0.852447717
12.665348            0.473476652     0.851290221   0.000378451637  -0.00025140787   0.000378451637 -0.000251407869      0.472227694     0.852143424
12.665376            0.473979771     0.850983021   0.000378979917  -0.00025210577   0.000378979916  -0.00025210577      0.472728854     0.851838525
12.665404            0.474483174     0.850675209   0.000379508835 -0.000252805691   0.000379508835 -0.000252805691        0.4732303      0.85153302