! TOUCHSTONE file generated by CST MICROWAVE STUDIO
! Date and time: Wed Jul 31 19:21:27 2024
! Project name: WaveGuide_BPF-Ver4.1_U-shape_Ku_T3_C4_CWA_2.cst
! Parameters = {cavity_h=16; cavity_l0=10; cavity_l1=15.2041; cavity_l2=16.864; cavity_l3=17.0794; cavity_l4=17.2675; cavity_l5=17.1192; cavity_l6=17.6333; cavity_r=2.5; cavity_screw_l=0.5; cavity_screw_r=1.5; cavity_w=8; iris_h00=0; iris_h01=8.8364; iris_h112=0; iris_h12=5.5873; iris_h211=3.6549; iris_h23=5.1926; iris_h310=3.9612; iris_h34=5.0819; iris_h45=4.9286; iris_h49=4.6273; iris_h56=4.8017; iris_h58=4.4388; iris_h67=6.5714; iris_rx=0.1; iris_screw_l=0.5; iris_screw_r=1.5; iris_shift00=0; iris_shift112=0; iris_shift211=3.5; iris_shift310=0; iris_shift49=0; iris_shift58=3.5; iris_shift67=3.5; iris_tx=4.5; iris_tz=4.5; iris_w00=0; iris_w112=0; iris_w211=4; iris_w310=3.9612; iris_w49=4.6273; iris_w58=4; iris_w67=4; mesh_cavity=5; mesh_iris=7; mesh_screw=7; order=12; reset_all=0; sigma=4.8e+07}
! Header version: 2018
! Port assignment regex: !\s*Touchstone port\s*([0-9]+)\s*=\s*(CST MWS port|CST DS port)\s*([0-9]+|Zmin|Zmax)\s*\(\"(.*)\"\)(\s*mode\s*([0-9]+))?.*
! Touchstone port assignment:
! Touchstone port 1 = CST MWS port 1 ("")
! Touchstone port 2 = CST MWS port 2 ("")
# GHz S RI R 50
12.66                0.396933561     0.894436359   0.000284714402 -0.000152634959   0.000284714403  -0.00015263496      0.397896605      0.89408891
12.660028             0.39736904     0.894224949   0.000285116886 -0.000153042577   0.000285116887 -0.000153042577      0.398330804     0.893877617
12.660056            0.397804731     0.894013158   0.000285519966 -0.000153451324   0.000285519966 -0.000153451324      0.398765289     0.893665911
12.660084            0.398240648     0.893800978   0.000285923641 -0.000153861204   0.000285923642 -0.000153861204      0.399200041       0.8934538
12.660112            0.398676805     0.893588404   0.000286327915 -0.000154272219   0.000286327915  -0.00015427222      0.399635042     0.893241291
12.66014             0.399113215     0.893375428   0.000286732787 -0.000154684373   0.000286732788 -0.000154684373      0.400070274     0.893028391
12.660168            0.399549879     0.893162049    0.00028713826 -0.000155097669    0.00028713826 -0.000155097669      0.400505737     0.892815099
12.660196            0.399986787     0.892948271   0.000287544332  -0.00015551211   0.000287544333  -0.00015551211      0.400941442      0.89260141
12.660224             0.40042394     0.892734094   0.000287951005   -0.0001559277   0.000287951006 -0.000155927701      0.401377391     0.892387323
12.660252            0.400861337     0.892519515    0.00028835828 -0.000156344443    0.00028835828 -0.000156344443      0.401813583     0.892172836
12.66028              0.40129898     0.892304535   0.000288766156 -0.000156762342   0.000288766157 -0.000156762342      0.402250019      0.89195795
12.660308            0.401736867     0.892089153   0.000289174635   -0.0001571814   0.000289174636   -0.0001571814      0.402686698     0.891742664
12.660336            0.402174999     0.891873368   0.000289583718 -0.000157601621   0.000289583718 -0.000157601621      0.403123621     0.891526976
12.660364            0.402613377      0.89165718   0.000289993404 -0.000158023008   0.000289993405 -0.000158023008      0.403560787     0.891310886
12.660392            0.403051999     0.891440587   0.000290403695 -0.000158445565   0.000290403696 -0.000158445566      0.403998197     0.891094393
12.66042             0.403490867     0.891223588   0.000290814592 -0.000158869296   0.000290814592 -0.000158869296      0.404435851     0.890877497
12.660448            0.403929981     0.891006184   0.000291226094 -0.000159294203   0.000291226095 -0.000159294204      0.404873749     0.890660197
12.660476             0.40436934     0.890788374   0.000291638203 -0.000159720291   0.000291638204 -0.000159720292      0.405311891     0.890442492
12.660504            0.404808944     0.890570156   0.000292050919 -0.000160147563    0.00029205092 -0.000160147564      0.405750278     0.890224381
12.660532            0.405248795     0.890351529   0.000292464243 -0.000160576023   0.000292464244 -0.000160576023      0.406188908     0.890005864
12.66056             0.405688891     0.890132494   0.000292878176 -0.000161005674   0.000292878177 -0.000161005674      0.406627783     0.889786939
12.660588            0.406129233     0.889913049   0.000293292718 -0.000161436519   0.000293292719 -0.000161436519      0.407066903     0.889567606
12.660616            0.406569821     0.889693194    0.00029370787 -0.000161868563   0.000293707871 -0.000161868563      0.407506266     0.889347865
12.660644            0.407010655     0.889472928   0.000294123632 -0.000162301808   0.000294123633 -0.000162301809      0.407945875     0.889127714
12.660672            0.407451735     0.889252249   0.000294540006 -0.000162736259   0.000294540007  -0.00016273626      0.408385728     0.888907153
12.6607              0.407893061     0.889031158   0.000294956991 -0.000163171919   0.000294956992  -0.00016317192      0.408825827     0.888686181
12.660728            0.408334634     0.888809653   0.000295374589 -0.000163608792    0.00029537459 -0.000163608793       0.40926617     0.888464797
12.660756            0.408776453     0.888587734     0.0002957928 -0.000164046882   0.000295792801 -0.000164046882      0.409706758     0.888243001
12.660784            0.409218519       0.8883654   0.000296211625 -0.000164486192   0.000296211625 -0.000164486192      0.410147591     0.888020792
12.660812            0.409660832     0.888142651   0.000296631064 -0.000164926725   0.000296631064 -0.000164926725      0.410588669     0.887798168
12.66084             0.410103391     0.887919484   0.000297051118 -0.000165368486   0.000297051119 -0.000165368486      0.411029993      0.88757513
12.660868            0.410546197     0.887695901   0.000297471788 -0.000165811478   0.000297471788 -0.000165811478      0.411471562     0.887351676
12.660896             0.41098925     0.887471899   0.000297893074 -0.000166255705   0.000297893074 -0.000166255705      0.411913376     0.887127805
12.660924             0.41143255     0.887247478   0.000298314977  -0.00016670117   0.000298314977  -0.00016670117      0.412355436     0.886903518
12.660952            0.411876097     0.887022638   0.000298737497 -0.000167147878   0.000298737498 -0.000167147878      0.412797742     0.886678812
12.66098             0.412319891     0.886797377   0.000299160636 -0.000167595832   0.000299160637 -0.000167595832      0.413240293     0.886453688
12.661008            0.412763932     0.886571695   0.000299584394 -0.000168045036   0.000299584394 -0.000168045036       0.41368309     0.886228145
12.661036            0.413208221     0.886345591   0.000300008771 -0.000168495493   0.000300008771 -0.000168495493      0.414126133     0.886002181
12.661064            0.413652757     0.886119064   0.000300433768 -0.000168947208   0.000300433769 -0.000168947208      0.414569423     0.885775796
12.661092            0.414097541     0.885892113   0.000300859386 -0.000169400184   0.000300859386 -0.000169400184      0.415012958     0.885548989
12.66112             0.414542572     0.885664738   0.000301285625 -0.000169854425   0.000301285626 -0.000169854425      0.415456739      0.88532176
12.661148            0.414987852     0.885436938   0.000301712486 -0.000170309935   0.000301712487 -0.000170309935      0.415900766     0.885094108
12.661176            0.415433378     0.885208712    0.00030213997 -0.000170766717    0.00030213997 -0.000170766718       0.41634504     0.884866031
12.661204            0.415879153     0.884980059   0.000302568077 -0.000171224776   0.000302568077 -0.000171224777       0.41678956     0.884637529
12.661232            0.416325176     0.884750979   0.000302996807 -0.000171684116   0.000302996808 -0.000171684116      0.417234327     0.884408602
12.66126             0.416771447      0.88452147   0.000303426162 -0.000172144739   0.000303426163  -0.00017214474       0.41767934     0.884179248
12.661288            0.417217966     0.884291532   0.000303856143 -0.000172606651   0.000303856143 -0.000172606651        0.4181246     0.883949466
12.661316            0.417664733     0.884061164   0.000304286748 -0.000173069855   0.000304286749 -0.000173069855      0.418570107     0.883719257
12.661344            0.418111748     0.883830365    0.00030471798 -0.000173534354   0.000304717981 -0.000173534355      0.419015861     0.883488619
12.661372            0.418559012     0.883599135   0.000305149839 -0.000174000154    0.00030514984 -0.000174000155      0.419461861      0.88325755
12.6614              0.419006524     0.883367472   0.000305582325 -0.000174467258   0.000305582326 -0.000174467258      0.419908108     0.883026052
12.661428            0.419454285     0.883135376    0.00030601544 -0.000174935669    0.00030601544 -0.000174935669      0.420354603     0.882794122
12.661456            0.419902294     0.882902846   0.000306449183 -0.000175405392   0.000306449183 -0.000175405392      0.420801344      0.88256176
12.661484            0.420350552     0.882669881   0.000306883555  -0.00017587643   0.000306883556  -0.00017587643      0.421248333     0.882328965
12.661512            0.420799059     0.882436481   0.000307318557 -0.000176348788   0.000307318558 -0.000176348789      0.421695569     0.882095736
12.66154             0.421247815     0.882202644    0.00030775419  -0.00017682247   0.000307754191 -0.000176822471      0.422143053     0.881862073
12.661568             0.42169682     0.881968369   0.000308190454  -0.00017729748   0.000308190454  -0.00017729748      0.422590784     0.881627974
12.661596            0.422146073     0.881733657   0.000308627349 -0.000177773821    0.00030862735 -0.000177773821      0.423038762     0.881393439
12.661624            0.422595576     0.881498506   0.000309064877 -0.000178251498   0.000309064877 -0.000178251498      0.423486988     0.881158467
12.661652            0.423045328     0.881262915   0.000309503037 -0.000178730515   0.000309503038 -0.000178730515      0.423935462     0.880923057
12.66168             0.423495329     0.881026883   0.000309941831 -0.000179210875   0.000309941832 -0.000179210876      0.424384184     0.880687209
12.661708             0.42394558      0.88079041   0.000310381259 -0.000179692584   0.000310381259 -0.000179692584      0.424833153     0.880450921
12.661736             0.42439608     0.880553495   0.000310821321 -0.000180175645   0.000310821322 -0.000180175645       0.42528237     0.880214193
12.661764             0.42484683     0.880316137   0.000311262019 -0.000180660061   0.000311262019 -0.000180660062      0.425731836     0.879977024
12.661792            0.425297829     0.880078335   0.000311703352 -0.000181145838   0.000311703353 -0.000181145839      0.426181549     0.879739413
12.66182             0.425749077     0.879840088   0.000312145322  -0.00018163298   0.000312145322  -0.00018163298      0.426631511     0.879501359
12.661848            0.426200576     0.879601395   0.000312587928  -0.00018212149   0.000312587929  -0.00018212149       0.42708172     0.879262861
12.661876            0.426652324     0.879362256   0.000313031172 -0.000182611372   0.000313031173 -0.000182611373      0.427532178     0.879023919
12.661904            0.427104322      0.87912267   0.000313475054 -0.000183102632   0.000313475055 -0.000183102632      0.427982885     0.878784532
12.661932             0.42755657     0.878882636   0.000313919575 -0.000183595272   0.000313919575 -0.000183595273      0.428433839     0.878544699
12.66196             0.428009068     0.878642153   0.000314364734 -0.000184089298   0.000314364735 -0.000184089299      0.428885043     0.878304419
12.661988            0.428461816      0.87840122   0.000314810534 -0.000184584714   0.000314810534 -0.000184584714      0.429336495     0.878063691
12.662016            0.428914814     0.878159837   0.000315256973 -0.000185081523   0.000315256974 -0.000185081523      0.429788195     0.877822514
12.662044            0.429368062     0.877918002   0.000315704054  -0.00018557973   0.000315704055  -0.00018557973      0.430240144     0.877580888
12.662072            0.429821561     0.877675715   0.000316151776 -0.000186079339   0.000316151777 -0.000186079339      0.430692342     0.877338811
12.6621               0.43027531     0.877432974    0.00031660014 -0.000186580354    0.00031660014 -0.000186580355      0.431144789     0.877096284
12.662128             0.43072931      0.87718978   0.000317049146 -0.000187082781   0.000317049147 -0.000187082781      0.431597485     0.876853304
12.662156            0.431183559      0.87694613   0.000317498796 -0.000187586622   0.000317498796 -0.000187586623      0.432050429     0.876609872
12.662184             0.43163806     0.876702025   0.000317949089 -0.000188091883   0.000317949089 -0.000188091883      0.432503623     0.876365986
12.662212            0.432092811     0.876457464   0.000318400026 -0.000188598567   0.000318400026 -0.000188598568      0.432957066     0.876121645
12.66224             0.432547813     0.876212445   0.000318851607  -0.00018910668   0.000318851608  -0.00018910668      0.433410758     0.875876849
12.662268            0.433003066     0.875966967   0.000319303834 -0.000189616225   0.000319303835 -0.000189616225      0.433864699     0.875631597
12.662296            0.433458569      0.87572103   0.000319756707 -0.000190127206   0.000319756708 -0.000190127207       0.43431889     0.875385888
12.662324            0.433914323     0.875474634   0.000320210226 -0.000190639629   0.000320210227  -0.00019063963       0.43477333      0.87513972
12.662352            0.434370329     0.875227776   0.000320664392 -0.000191153497   0.000320664393 -0.000191153498      0.435228019     0.874893094
12.66238             0.434826585     0.874980457   0.000321119205 -0.000191668816   0.000321119206 -0.000191668816      0.435682958     0.874646008
12.662408            0.435283092     0.874732675   0.000321574666 -0.000192185588   0.000321574667 -0.000192185589      0.436138147     0.874398461
12.662436            0.435739851     0.874484429   0.000322030776  -0.00019270382   0.000322030776  -0.00019270382      0.436593585     0.874150453
12.662464            0.436196861     0.874235719   0.000322487534 -0.000193223514   0.000322487534 -0.000193223515      0.437049272     0.873901983
12.662492            0.436654122     0.873986543   0.000322944941 -0.000193744677   0.000322944942 -0.000193744677       0.43750521     0.873653049
12.66252             0.437111634     0.873736902   0.000323402999 -0.000194267311      0.000323403 -0.000194267312      0.437961397     0.873403652
12.662548            0.437569398     0.873486793   0.000323861707 -0.000194791423   0.000323861708 -0.000194791423      0.438417834     0.873153789
12.662576            0.438027413     0.873236216   0.000324321066 -0.000195317015   0.000324321067 -0.000195317016      0.438874521     0.872903461
12.662604            0.438485679     0.872985171   0.000324781077 -0.000195844094   0.000324781077 -0.000195844094      0.439331458     0.872652666
12.662632            0.438944198     0.872733656   0.000325241739 -0.000196372662    0.00032524174 -0.000196372663      0.439788645     0.872401403
12.66266             0.439402968      0.87248167   0.000325703054 -0.000196902726   0.000325703054 -0.000196902726      0.440246083     0.872149672
12.662688            0.439861989     0.872229212   0.000326165022 -0.000197434289   0.000326165022 -0.000197434289       0.44070377     0.871897471
12.662716            0.440321262     0.871976282   0.000326627643 -0.000197967356   0.000326627643 -0.000197967356      0.441161707       0.8716448
12.662744            0.440780788     0.871722879   0.000327090918 -0.000198501931   0.000327090919 -0.000198501932      0.441619895     0.871391659
12.662772            0.441240565     0.871469002   0.000327554848  -0.00019903802   0.000327554848 -0.000199038021      0.442078333     0.871138045
12.6628              0.441700593     0.871214649   0.000328019432 -0.000199575627   0.000328019433 -0.000199575627      0.442537022     0.870883958
12.662828            0.442160874     0.870959821   0.000328484672 -0.000200114756   0.000328484672 -0.000200114757      0.442995961     0.870629397
12.662856            0.442621407     0.870704516   0.000328950568 -0.000200655413   0.000328950568 -0.000200655413       0.44345515     0.870374362
12.662884            0.443082192     0.870448732    0.00032941712 -0.000201197601    0.00032941712 -0.000201197602       0.44391459     0.870118851
12.662912            0.443543229      0.87019247   0.000329884329 -0.000201741326   0.000329884329 -0.000201741327       0.44437428     0.869862863
12.66294             0.444004518     0.869935729   0.000330352195 -0.000202286592   0.000330352195 -0.000202286593      0.444834221     0.869606398
12.662968             0.44446606     0.869678507   0.000330820719 -0.000202833405   0.000330820719 -0.000202833405      0.445294413     0.869349455
12.662996            0.444927853     0.869420803   0.000331289901 -0.000203381768   0.000331289901 -0.000203381768      0.445754855     0.869092032
12.663024            0.445389899     0.869162617   0.000331759742 -0.000203931686   0.000331759742 -0.000203931687      0.446215548     0.868834129
12.663052            0.445852198     0.868903947   0.000332230241 -0.000204483165   0.000332230242 -0.000204483165      0.446676492     0.868575746
12.66308             0.446314749     0.868644794   0.000332701401 -0.000205036209   0.000332701402 -0.000205036209      0.447137687      0.86831688
12.663108            0.446777552     0.868385155    0.00033317322 -0.000205590823   0.000333173221 -0.000205590823      0.447599133     0.868057531
12.663136            0.447240608      0.86812503     0.0003336457 -0.000206147011   0.000333645701 -0.000206147012       0.44806083     0.867797699
12.663164            0.447703916     0.867864418   0.000334118841 -0.000206704779   0.000334118842  -0.00020670478      0.448522778     0.867537381
12.663192            0.448167477     0.867603319   0.000334592644 -0.000207264132   0.000334592644 -0.000207264132      0.448984976     0.867276579
12.66322             0.448631291      0.86734173   0.000335067108 -0.000207825073   0.000335067108 -0.000207825074      0.449447426     0.867015289
12.663248            0.449095357     0.867079651   0.000335542234 -0.000208387609   0.000335542234  -0.00020838761      0.449910127     0.866753512
12.663276            0.449559676     0.866817082   0.000336018023 -0.000208951744   0.000336018023 -0.000208951744       0.45037308     0.866491247
12.663304            0.450024248     0.866554021   0.000336494475 -0.000209517483   0.000336494475 -0.000209517483      0.450836283     0.866228492
12.663332            0.450489072     0.866290468    0.00033697159 -0.000210084831   0.000336971591 -0.000210084831      0.451299738     0.865965247
12.66336              0.45095415     0.866026421   0.000337449369 -0.000210653792    0.00033744937 -0.000210653793      0.451763444     0.865701511
12.663388             0.45141948     0.865761879   0.000337927813 -0.000211224373   0.000337927813 -0.000211224373      0.452227401     0.865437282
12.663416            0.451885064     0.865496842   0.000338406921 -0.000211796577   0.000338406922 -0.000211796577       0.45269161     0.865172561
12.663444              0.4523509     0.865231308   0.000338886695  -0.00021237041   0.000338886695  -0.00021237041       0.45315607     0.864907345
12.663472             0.45281699     0.864965278   0.000339367134 -0.000212945876   0.000339367134 -0.000212945877      0.453620781     0.864641635
12.6635              0.453283332     0.864698748   0.000339848239 -0.000213522982   0.000339848239 -0.000213522983      0.454085744     0.864375428
12.663528            0.453749928      0.86443172    0.00034033001 -0.000214101732   0.000340330011 -0.000214101732      0.454550959     0.864108725
12.663556            0.454216776     0.864164192   0.000340812448  -0.00021468213   0.000340812449 -0.000214682131      0.455016425     0.863841524
12.663584            0.454683878     0.863896162   0.000341295553 -0.000215264183   0.000341295554 -0.000215264183      0.455482143     0.863573823
12.663612            0.455151233      0.86362763   0.000341779326 -0.000215847894   0.000341779326 -0.000215847895      0.455948112     0.863305624
12.66364             0.455618842     0.863358595   0.000342263766  -0.00021643327   0.000342263767 -0.000216433271      0.456414333     0.863036923
12.663668            0.456086703     0.863089056   0.000342748875 -0.000217020315   0.000342748875 -0.000217020316      0.456880806     0.862767721
12.663696            0.456554818     0.862819012   0.000343234652 -0.000217609035   0.000343234653 -0.000217609036      0.457347531     0.862498017
12.663724            0.457023186     0.862548462   0.000343721099 -0.000218199435   0.000343721099 -0.000218199435      0.457814507     0.862227808
12.663752            0.457491808     0.862277405   0.000344208214 -0.000218791519   0.000344208215  -0.00021879152      0.458281735     0.861957095
12.66378             0.457960683      0.86200584   0.000344695999 -0.000219385294      0.000344696 -0.000219385294      0.458749215     0.861685877
12.663808            0.458429811     0.861733766   0.000345184455 -0.000219980763   0.000345184455 -0.000219980764      0.459216946     0.861414152
12.663836            0.458899193     0.861461182   0.000345673581 -0.000220577934   0.000345673581 -0.000220577934       0.45968493      0.86114192
12.663864            0.459368829     0.861188087   0.000346163377  -0.00022117681   0.000346163378  -0.00022117681      0.460153165      0.86086918
12.663892            0.459838718     0.860914481   0.000346653845 -0.000221777397   0.000346653845 -0.000221777397      0.460621653      0.86059593
12.66392              0.46030886     0.860640361   0.000347144984   -0.0002223797   0.000347144984 -0.000222379701      0.461090392     0.860322169
12.663948            0.460779256     0.860365728   0.000347636794 -0.000222983725   0.000347636795 -0.000222983726      0.461559383     0.860047897
12.663976            0.461249906      0.86009058   0.000348129277 -0.000223589477   0.000348129278 -0.000223589478      0.462028627     0.859773113
12.664004            0.461720809     0.859814916   0.000348622432 -0.000224196962   0.000348622433 -0.000224196962      0.462498122     0.859497816
12.664032            0.462191966     0.859538735    0.00034911626 -0.000224806184   0.000349116261 -0.000224806184      0.462967869     0.859222004
12.66406             0.462663376     0.859262037   0.000349610761 -0.000225417149   0.000349610762  -0.00022541715      0.463437869     0.858945678
12.664088            0.463135041      0.85898482   0.000350105936 -0.000226029863   0.000350105936 -0.000226029863       0.46390812     0.858668834
12.664116            0.463606959     0.858707083   0.000350601784  -0.00022664433   0.000350601784 -0.000226644331      0.464378624     0.858391474
12.664144             0.46407913     0.858428825   0.000351098306 -0.000227260557   0.000351098306 -0.000227260557       0.46484938     0.858113595
12.664172            0.464551556     0.858150045   0.000351595502 -0.000227878548   0.000351595502 -0.000227878549      0.465320388     0.857835197
12.6642              0.465024235     0.857870742   0.000352093373  -0.00022849831   0.000352093373  -0.00022849831      0.465791648     0.857556279
12.664228            0.465497168     0.857590916   0.000352591918 -0.000229119847   0.000352591919 -0.000229119847       0.46626316      0.85727684
12.664256            0.465970354     0.857310565   0.000353091139 -0.000229743165   0.000353091139 -0.000229743166      0.466734924     0.856996878
12.664284            0.466443795     0.857029688   0.000353591035 -0.000230368271   0.000353591035 -0.000230368271      0.467206941     0.856716393
12.664312            0.466917489     0.856748284   0.000354091606 -0.000230995168   0.000354091607 -0.000230995168       0.46767921     0.856435384
12.66434             0.467391438     0.856466352   0.000354592854 -0.000231623863   0.000354592855 -0.000231623864      0.468151731     0.856153849
12.664368             0.46786564     0.856183892   0.000355094778 -0.000232254362   0.000355094778 -0.000232254362      0.468624504     0.855871788
12.664396            0.468340096     0.855900901   0.000355597378 -0.000232886669   0.000355597379 -0.000232886669       0.46909753       0.8555892
12.664424            0.468814805     0.855617379   0.000356100655 -0.000233520791   0.000356100655 -0.000233520792      0.469570808     0.855306084
12.664452            0.469289769     0.855333326   0.000356604609 -0.000234156733   0.000356604609 -0.000234156734      0.470044338     0.855022438
12.66448             0.469764987     0.855048739    0.00035710924 -0.000234794501    0.00035710924 -0.000234794502      0.470518121     0.854738262
12.664508            0.470240458     0.854763619   0.000357614548 -0.000235434101   0.000357614549 -0.000235434101      0.470992155     0.854453554
12.664536            0.470716184     0.854477963   0.000358120534 -0.000236075538   0.000358120535 -0.000236075538      0.471466443     0.854168314
12.664564            0.471192163     0.854191771   0.000358627198 -0.000236718817   0.000358627198 -0.000236718818      0.471940982     0.853882541
12.664592            0.471668396     0.853905042    0.00035913454 -0.000237363946    0.00035913454 -0.000237363946      0.472415774     0.853596233
12.66462             0.472144884     0.853617775    0.00035964256 -0.000238010928   0.000359642561 -0.000238010929      0.472890818      0.85330939
12.664648            0.472621625     0.853329969   0.000360151259 -0.000238659771   0.000360151259 -0.000238659772      0.473366114      0.85302201
12.664676             0.47309862     0.853041622   0.000360660636  -0.00023931048   0.000360660637  -0.00023931048      0.473841663     0.852734092
12.664704            0.473575869     0.852752734   0.000361170693  -0.00023996306   0.000361170693 -0.000239963061      0.474317464     0.852445636
12.664732            0.474053372     0.852463304   0.000361681428 -0.000240617518   0.000361681429 -0.000240617519      0.474793517      0.85215664
12.66476             0.474531129      0.85217333   0.000362192843  -0.00024127386   0.000362192843  -0.00024127386      0.475269823     0.851867104
12.664788             0.47500914     0.851882812   0.000362704937  -0.00024193209   0.000362704937 -0.000241932091      0.475746381     0.851577026
12.664816            0.475487405     0.851591748   0.000363217711 -0.000242592216   0.000363217711 -0.000242592216      0.476223191     0.851286405
12.664844            0.475965924     0.851300138   0.000363731164 -0.000243254242   0.000363731165 -0.000243254243      0.476700254      0.85099524
12.664872            0.476444696      0.85100798   0.000364245298 -0.000243918176   0.000364245299 -0.000243918177      0.477177569      0.85070353
12.6649              0.476923723     0.850715273   0.000364760112 -0.000244584023   0.000364760112 -0.000244584023      0.477655136     0.850411274
12.664928            0.477403004     0.850422016   0.000365275606 -0.000245251788   0.000365275606 -0.000245251788      0.478132956     0.850118471
12.664956            0.477882538     0.850128209    0.00036579178 -0.000245921478   0.000365791781 -0.000245921479      0.478611028     0.849825121
12.664984            0.478362327     0.849833849   0.000366308635 -0.000246593099   0.000366308636   -0.0002465931      0.479089352     0.849531221
12.665012            0.478842369     0.849538937   0.000366826171 -0.000247266657   0.000366826172 -0.000247266657      0.479567928      0.84923677
12.66504             0.479322665      0.84924347   0.000367344388 -0.000247942157   0.000367344388 -0.000247942158      0.480046757     0.848941769
12.665068            0.479803216     0.848947449   0.000367863285 -0.000248619607   0.000367863286 -0.000248619607      0.480525838     0.848646215
12.665096             0.48028402     0.848650871   0.000368382864 -0.000249299011   0.000368382864 -0.000249299012      0.481005172     0.848350108
12.665124            0.480765078     0.848353735   0.000368903123 -0.000249980377   0.000368903124 -0.000249980377      0.481484757     0.848053446
12.665152            0.481246389     0.848056041   0.000369424064  -0.00025066371   0.000369424065  -0.00025066371      0.481964595     0.847756229
12.66518             0.481727955     0.847757788   0.000369945687 -0.000251349016   0.000369945687 -0.000251349016      0.482444685     0.847458455
12.665208            0.482209775     0.847458974   0.000370467991 -0.000252036301   0.000370467991 -0.000252036302      0.482925027     0.847160123
12.665236            0.482691848     0.847159599   0.000370990976 -0.000252725572   0.000370990977 -0.000252725573      0.483405622     0.846861233
12.665264            0.483174175      0.84685966   0.000371514643 -0.000253416836   0.000371514644 -0.000253416836      0.483886468     0.846561782
12.665292            0.483656756     0.846559158   0.000372038992 -0.000254110097   0.000372038993 -0.000254110097      0.484367567     0.846261771
12.66532             0.484139591     0.846258091   0.000372564023 -0.000254805362   0.000372564023 -0.000254805363      0.484848918     0.845961197
12.665348            0.484622679     0.845956457   0.000373089735 -0.000255502638   0.000373089735 -0.000255502639      0.485330521     0.845660061
12.665376            0.485106021     0.845654257   0.000373616129 -0.000256201931    0.00037361613 -0.000256201932      0.485812376      0.84535836
12.665404            0.485589617     0.845351488   0.000374143205 -0.000256903248   0.000374143206 -0.000256903248      0.486294483     0.845056093