! TOUCHSTONE file generated by CST MICROWAVE STUDIO
! Date and time: Wed Jul 31 19:34:11 2024
! Project name: WaveGuide_BPF-Ver4.1_U-shape_Ku_T3_C4_CWA_2.cst
! Parameters = {cavity_h=16; cavity_l0=10; cavity_l1=15.2228; cavity_l2=16.8822; cavity_l3=17.0993; cavity_l4=17.2739; cavity_l5=17.112; cavity_l6=17.6304; cavity_r=2.5; cavity_screw_l=0.5; cavity_screw_r=1.5; cavity_w=8; iris_h00=0; iris_h01=8.8254; iris_h112=0; iris_h12=5.5861; iris_h211=3.6544; iris_h23=5.1917; iris_h310=3.9739; iris_h34=5.0734; iris_h45=4.9238; iris_h49=4.6217; iris_h56=4.8026; iris_h58=4.4412; iris_h67=6.5735; iris_rx=0.1; iris_screw_l=0.5; iris_screw_r=1.5; iris_shift00=0; iris_shift112=0; iris_shift211=3.5; iris_shift310=0; iris_shift49=0; iris_shift58=3.5; iris_shift67=3.5; iris_tx=4.5; iris_tz=4.5; iris_w00=0; iris_w112=0; iris_w211=4; iris_w310=3.9739; iris_w49=4.6217; iris_w58=4; iris_w67=4; mesh_cavity=5; mesh_iris=7; mesh_screw=7; order=12; reset_all=0; sigma=4.8e+07}
! Header version: 2018
! Port assignment regex: !\s*Touchstone port\s*([0-9]+)\s*=\s*(CST MWS port|CST DS port)\s*([0-9]+|Zmin|Zmax)\s*\(\"(.*)\"\)(\s*mode\s*([0-9]+))?.*
! Touchstone port assignment:
! Touchstone port 1 = CST MWS port 1 ("")
! Touchstone port 2 = CST MWS port 2 ("")
# GHz S RI R 50
12.66                0.437285532     0.872779645   0.000361022912 -0.000218678635   0.000361022912 -0.000218678635      0.438206096     0.872415264
12.660028            0.437758451     0.872519799   0.000361555289 -0.000219290825   0.000361555289 -0.000219290825       0.43867799     0.872155428
12.660056            0.438231716     0.872259411   0.000362088442 -0.000219904825   0.000362088443 -0.000219904825      0.439150136     0.871895098
12.660084            0.438705295     0.871998496   0.000362622378 -0.000220520638   0.000362622379 -0.000220520638      0.439622541     0.871634268
12.660112            0.439179156     0.871737069   0.000363157102 -0.000221138267   0.000363157102 -0.000221138267      0.440095215     0.871372934
12.66014              0.43965327     0.871475144   0.000363692619 -0.000221757714   0.000363692619 -0.000221757714      0.440568166      0.87111109
12.660168            0.440127636     0.871212719    0.00036422893 -0.000222378986   0.000364228931 -0.000222378986      0.441041395     0.870848736
12.660196            0.440602275     0.870949783   0.000364766033 -0.000223002089   0.000364766034  -0.00022300209      0.441514896     0.870585872
12.660224            0.441077186     0.870686337   0.000365303928 -0.000223627031   0.000365303929 -0.000223627031      0.441988669     0.870322498
12.660252            0.441552371     0.870422377   0.000365842616 -0.000224253817   0.000365842616 -0.000224253817      0.442462714     0.870058613
12.66028             0.442027828     0.870157904   0.000366382097 -0.000224882452   0.000366382098 -0.000224882452       0.44293703     0.869794216
12.660308            0.442503559     0.869892916   0.000366922372 -0.000225512943   0.000366922373 -0.000225512944      0.443411619     0.869529306
12.660336            0.442979563     0.869627413   0.000367463442 -0.000226145296   0.000367463442 -0.000226145297       0.44388648     0.869263882
12.660364             0.44345584     0.869361393   0.000368005307 -0.000226779517   0.000368005307 -0.000226779517      0.444361614     0.868997942
12.660392            0.443932391     0.869094855   0.000368547967 -0.000227415611   0.000368547968 -0.000227415612      0.444837019     0.868731486
12.66042             0.444409215     0.868827799   0.000369091424 -0.000228053586   0.000369091425 -0.000228053586      0.445312697     0.868464513
12.660448            0.444886313     0.868560222   0.000369635678 -0.000228693445   0.000369635678 -0.000228693446      0.445788648     0.868197022
12.660476            0.445363684     0.868292125    0.00037018073 -0.000229335197    0.00037018073 -0.000229335197      0.446264871     0.867929012
12.660504            0.445841328     0.868023506   0.000370726579 -0.000229978846    0.00037072658 -0.000229978847      0.446741366     0.867660481
12.660532            0.446319247     0.867754364   0.000371273228   -0.0002306244   0.000371273228   -0.0002306244      0.447218134     0.867391429
12.66056             0.446797439     0.867484698   0.000371820675 -0.000231271863   0.000371820676 -0.000231271863      0.447695175     0.867121854
12.660588            0.447275905     0.867214507   0.000372368923 -0.000231921243   0.000372368923 -0.000231921243      0.448172489     0.866851756
12.660616            0.447754645     0.866943791   0.000372917971 -0.000232572545   0.000372917971 -0.000232572545      0.448650075     0.866581134
12.660644            0.448233659     0.866672546    0.00037346782 -0.000233225775    0.00037346782 -0.000233225776      0.449127935     0.866309986
12.660672            0.448712946     0.866400774    0.00037401847 -0.000233880941   0.000374018471 -0.000233880941      0.449606067     0.866038311
12.6607              0.449192508     0.866128473   0.000374569923 -0.000234538047   0.000374569924 -0.000234538047      0.450084473     0.865766109
12.660728            0.449672344     0.865855641   0.000375122179   -0.0002351971   0.000375122179 -0.000235197101      0.450563151     0.865493377
12.660756            0.450152454     0.865582278   0.000375675237 -0.000235858107   0.000375675238 -0.000235858108      0.451042103     0.865220117
12.660784            0.450632839     0.865308382     0.0003762291 -0.000236521074     0.0003762291 -0.000236521074      0.451521327     0.864946325
12.660812            0.451113497     0.865033953   0.000376783766 -0.000237186007   0.000376783767 -0.000237186007      0.452000825     0.864672001
12.66084              0.45159443      0.86475899   0.000377339238 -0.000237852912   0.000377339238 -0.000237852912      0.452480597     0.864397144
12.660868            0.452075638     0.864483491   0.000377895515 -0.000238521796   0.000377895515 -0.000238521797      0.452960641     0.864121754
12.660896            0.452557119     0.864207455   0.000378452597 -0.000239192665   0.000378452598 -0.000239192666      0.453440959     0.863845828
12.660924            0.453038876     0.863930881   0.000379010486 -0.000239865526   0.000379010487 -0.000239865526      0.453921551     0.863569366
12.660952            0.453520907     0.863653768   0.000379569182 -0.000240540385   0.000379569183 -0.000240540385      0.454402416     0.863292367
12.66098             0.454003212     0.863376115   0.000380128686 -0.000241217248   0.000380128686 -0.000241217248      0.454883554     0.863014829
12.661008            0.454485792     0.863097922   0.000380688997 -0.000241896122   0.000380688998 -0.000241896122      0.455364967     0.862736752
12.661036            0.454968647     0.862819186   0.000381250117 -0.000242577013   0.000381250117 -0.000242577014      0.455846652     0.862458134
12.661064            0.455451777     0.862539907   0.000381812045 -0.000243259929   0.000381812046 -0.000243259929      0.456328612     0.862178975
12.661092            0.455935181     0.862260083   0.000382374783 -0.000243944874   0.000382374784 -0.000243944874      0.456810845     0.861899273
12.66112              0.45641886     0.861979715   0.000382938331 -0.000244631857   0.000382938332 -0.000244631857      0.457293352     0.861619027
12.661148            0.456902814     0.861698799   0.000383502689 -0.000245320883    0.00038350269 -0.000245320883      0.457776133     0.861338237
12.661176            0.457387044     0.861417336   0.000384067858 -0.000246011959   0.000384067858 -0.000246011959      0.458259188       0.8610569
12.661204            0.457871548     0.861135324   0.000384633838 -0.000246705092   0.000384633839 -0.000246705092      0.458742517     0.860775016
12.661232            0.458356327     0.860852763    0.00038520063 -0.000247400289    0.00038520063 -0.000247400289       0.45922612     0.860492584
12.66126             0.458841381      0.86056965   0.000385768234 -0.000248097555   0.000385768234 -0.000248097555      0.459709997     0.860209603
12.661288             0.45932671     0.860285986    0.00038633665 -0.000248796899   0.000386336651 -0.000248796899      0.460194148     0.859926071
12.661316            0.459812315     0.860001768    0.00038690588 -0.000249498325   0.000386905881 -0.000249498326      0.460678573     0.859641988
12.661344            0.460298194     0.859716996   0.000387475923 -0.000250201842   0.000387475924 -0.000250201843      0.461163272     0.859357353
12.661372            0.460784349     0.859431668    0.00038804678 -0.000250907457   0.000388046781 -0.000250907457      0.461648245     0.859072163
12.6614               0.46127078     0.859145784   0.000388618452 -0.000251615174   0.000388618452 -0.000251615175      0.462133493     0.858786419
12.661428            0.461757485     0.858859342   0.000389190938 -0.000252325003   0.000389190938 -0.000252325003      0.462619015     0.858500118
12.661456            0.462244466     0.858572342   0.000389764239 -0.000253036949   0.000389764239 -0.000253036949      0.463104811     0.858213261
12.661484            0.462731722     0.858284781   0.000390338356 -0.000253751019   0.000390338356 -0.000253751019      0.463590882     0.857925845
12.661512            0.463219254     0.857996659   0.000390913288  -0.00025446722   0.000390913289 -0.000254467221      0.464077227      0.85763787
12.66154             0.463707061     0.857707975   0.000391489038  -0.00025518556   0.000391489038  -0.00025518556      0.464563846     0.857349334
12.661568            0.464195144     0.857418728   0.000392065603 -0.000255906044   0.000392065604 -0.000255906045       0.46505074     0.857060237
12.661596            0.464683502     0.857128916   0.000392642986 -0.000256628681   0.000392642987 -0.000256628681      0.465537908     0.856770577
12.661624            0.465172136     0.856838539   0.000393221187 -0.000257353476   0.000393221187 -0.000257353476      0.466025351     0.856480353
12.661652            0.465661045     0.856547595   0.000393800205 -0.000258080438   0.000393800206 -0.000258080438      0.466513068     0.856189564
12.66168              0.46615023     0.856256083   0.000394380042 -0.000258809572   0.000394380042 -0.000258809572       0.46700106     0.855898208
12.661708             0.46663969     0.855964002   0.000394960697 -0.000259540886   0.000394960697 -0.000259540887      0.467489326     0.855606286
12.661736            0.467129427      0.85567135   0.000395542171 -0.000260274388   0.000395542171 -0.000260274388      0.467977868     0.855313794
12.661764            0.467619438     0.855378127   0.000396124464 -0.000261010084   0.000396124465 -0.000261010084      0.468466683     0.855020734
12.661792            0.468109726     0.855084332   0.000396707577 -0.000261747981   0.000396707577 -0.000261747981      0.468955774     0.854727102
12.66182             0.468600289     0.854789963    0.00039729151 -0.000262488086    0.00039729151 -0.000262488086      0.469445139     0.854432898
12.661848            0.469091129     0.854495019   0.000397876263 -0.000263230407   0.000397876263 -0.000263230408      0.469934779     0.854138122
12.661876            0.469582244     0.854199498   0.000398461837 -0.000263974951   0.000398461837 -0.000263974952      0.470424693      0.85384277
12.661904            0.470073634     0.853903401   0.000399048231 -0.000264721726   0.000399048232 -0.000264721726      0.470914883     0.853546844
12.661932            0.470565301     0.853606725   0.000399635447 -0.000265470737   0.000399635447 -0.000265470737      0.471405347     0.853250341
12.66196             0.471057243     0.853309469   0.000400223484 -0.000266221993   0.000400223484 -0.000266221994      0.471896086      0.85295326
12.661988            0.471549462     0.853011633   0.000400812343 -0.000266975502   0.000400812343 -0.000266975502      0.472387099       0.8526556
12.662016            0.472041956     0.852713215   0.000401402024 -0.000267731269   0.000401402024 -0.000267731269      0.472878388     0.852357359
12.662044            0.472534726     0.852414214   0.000401992527 -0.000268489303   0.000401992528 -0.000268489303      0.473369951     0.852058538
12.662072            0.473027772     0.852114628   0.000402583853 -0.000269249611   0.000402583854 -0.000269249611       0.47386179     0.851759134
12.6621              0.473521094     0.851814456   0.000403176002   -0.0002700122   0.000403176002   -0.0002700122      0.474353903     0.851459146
12.662128            0.474014692     0.851513698   0.000403768974 -0.000270777078   0.000403768974 -0.000270777079      0.474846291     0.851158573
12.662156            0.474508566     0.851212352   0.000404362769 -0.000271544253   0.000404362769 -0.000271544253      0.475338954     0.850857414
12.662184            0.475002716     0.850910417   0.000404957387 -0.000272313731   0.000404957388 -0.000272313731      0.475831892     0.850555668
12.662212            0.475497142     0.850607892    0.00040555283 -0.000273085521    0.00040555283 -0.000273085521      0.476325105     0.850253333
12.66224             0.475991843     0.850304775   0.000406149096 -0.000273859629   0.000406149097 -0.000273859629      0.476818593     0.849950409
12.662268            0.476486821     0.850001065   0.000406746187 -0.000274636064   0.000406746187 -0.000274636064      0.477312356     0.849646893
12.662296            0.476982075     0.849696761   0.000407344102 -0.000275414833   0.000407344103 -0.000275414833      0.477806393     0.849342786
12.662324            0.477477605     0.849391862   0.000407942842 -0.000276195943   0.000407942842 -0.000276195943      0.478300706     0.849038085
12.662352            0.477973411     0.849086367   0.000408542406 -0.000276979402   0.000408542407 -0.000276979403      0.478795294      0.84873279
12.66238             0.478469493     0.848780274   0.000409142796 -0.000277765219   0.000409142797 -0.000277765219      0.479290157     0.848426898
12.662408            0.478965851     0.848473582   0.000409744011   -0.0002785534   0.000409744011   -0.0002785534      0.479785294      0.84812041
12.662436            0.479462485      0.84816629   0.000410346051 -0.000279343953   0.000410346051 -0.000279343953      0.480280707     0.847813324
12.662464            0.479959395     0.847858397   0.000410948917 -0.000280136887   0.000410948917 -0.000280136887      0.480776394     0.847505638
12.662492            0.480456581     0.847549901   0.000411552608 -0.000280932208   0.000411552608 -0.000280932208      0.481272357     0.847197352
12.66252             0.480954043     0.847240801   0.000412157125 -0.000281729925   0.000412157125 -0.000281729925      0.481768594     0.846888463
12.662548            0.481451781     0.846931097   0.000412762468 -0.000282530045   0.000412762468 -0.000282530045      0.482265107     0.846578972
12.662576            0.481949795     0.846620786   0.000413368637 -0.000283332577   0.000413368638 -0.000283332577      0.482761894     0.846268876
12.662604            0.482448085     0.846309867   0.000413975632 -0.000284137528   0.000413975633 -0.000284137528      0.483258957     0.845958175
12.662632            0.482946651      0.84599834   0.000414583454 -0.000284944906   0.000414583454 -0.000284944906      0.483756294     0.845646866
12.66266             0.483445493     0.845686203   0.000415192102 -0.000285754719   0.000415192102 -0.000285754719      0.484253907      0.84533495
12.662688            0.483944611     0.845373454   0.000415801576 -0.000286566975   0.000415801577 -0.000286566975      0.484751794     0.845022424
12.662716            0.484444005     0.845060093   0.000416411877 -0.000287381682   0.000416411877 -0.000287381683      0.485249956     0.844709288
12.662744            0.484943675     0.844746119   0.000417023005 -0.000288198849   0.000417023005 -0.000288198849      0.485748393      0.84439554
12.662772            0.485443621     0.844431529   0.000417634959 -0.000289018482   0.000417634959 -0.000289018482      0.486247105     0.844081178
12.6628              0.485943843     0.844116323    0.00041824774 -0.000289840591    0.00041824774 -0.000289840591      0.486746092     0.843766203
12.662828             0.48644434     0.843800499   0.000418861347 -0.000290665183   0.000418861348 -0.000290665183      0.487245354     0.843450611
12.662856            0.486945114     0.843484056   0.000419475782 -0.000291492266   0.000419475782 -0.000291492266      0.487744891     0.843134403
12.662884            0.487446164     0.843166993   0.000420091043 -0.000292321849   0.000420091044  -0.00029232185      0.488244702     0.842817577
12.662912            0.487947489     0.842849309   0.000420707132  -0.00029315394   0.000420707132  -0.00029315394      0.488744789     0.842500131
12.66294              0.48844909     0.842531002   0.000421324047 -0.000293988547   0.000421324047 -0.000293988547       0.48924515     0.842182065
12.662968            0.488950967     0.842212072   0.000421941789 -0.000294825678   0.000421941789 -0.000294825679      0.489745786     0.841863376
12.662996             0.48945312     0.841892515   0.000422560358 -0.000295665342   0.000422560358 -0.000295665343      0.490246696     0.841544064
12.663024            0.489955549     0.841572333   0.000423179754 -0.000296507547   0.000423179754 -0.000296507547      0.490747882     0.841224128
12.663052            0.490458254     0.841251522   0.000423799976 -0.000297352301   0.000423799977 -0.000297352301      0.491249342     0.840903566
12.66308             0.490961234     0.840930083   0.000424421026 -0.000298199613   0.000424421026 -0.000298199613      0.491751077     0.840582376
12.663108             0.49146449     0.840608012   0.000425042902  -0.00029904949   0.000425042902 -0.000299049491      0.492253086     0.840260559
12.663136            0.491968021      0.84028531   0.000425665605 -0.000299901942   0.000425665605 -0.000299901943       0.49275537     0.839938111
12.663164            0.492471828     0.839961975   0.000426289134 -0.000300756977   0.000426289134 -0.000300756978      0.493257929     0.839615032
12.663192            0.492975911     0.839638006    0.00042691349 -0.000301614604    0.00042691349 -0.000301614604      0.493760762     0.839291321
12.66322              0.49348027     0.839313401   0.000427538672  -0.00030247483   0.000427538673  -0.00030247483       0.49426387     0.838966977
12.663248            0.493984904     0.838988159   0.000428164681 -0.000303337665   0.000428164681 -0.000303337665      0.494767252     0.838641997
12.663276            0.494489813     0.838662279   0.000428791516 -0.000304203117   0.000428791516 -0.000304203117      0.495270909     0.838316382
12.663304            0.494994998     0.838335759   0.000429419177 -0.000305071194   0.000429419177 -0.000305071194       0.49577484     0.837990128
12.663332            0.495500458     0.838008598   0.000430047664 -0.000305941906   0.000430047664 -0.000305941906      0.496279046     0.837663236
12.66336             0.496006194     0.837680794   0.000430676977 -0.000306815261   0.000430676977 -0.000306815261      0.496783526     0.837335703
12.663388            0.496512205     0.837352347   0.000431307115 -0.000307691267   0.000431307116 -0.000307691267       0.49728828     0.837007529
12.663416            0.497018492     0.837023256    0.00043193808 -0.000308569934    0.00043193808 -0.000308569934      0.497793309     0.836678712
12.663444            0.497525053     0.836693517   0.000432569869  -0.00030945127   0.000432569869  -0.00030945127      0.498298612     0.836349251
12.663472             0.49803189     0.836363131   0.000433202484 -0.000310335284   0.000433202484 -0.000310335284      0.498804189     0.836019144
12.6635              0.498539003     0.836032097   0.000433835923 -0.000311221984   0.000433835924 -0.000311221985       0.49931004     0.835688391
12.663528             0.49904639     0.835700411   0.000434470188 -0.000312111381   0.000434470188 -0.000312111381      0.499816165     0.835356989
12.663556            0.499554052     0.835368075   0.000435105277 -0.000313003481   0.000435105277 -0.000313003482      0.500322564     0.835024937
12.663584             0.50006199     0.835035085    0.00043574119 -0.000313898296    0.00043574119 -0.000313898296      0.500829238     0.834692235
12.663612            0.500570202      0.83470144   0.000436377927 -0.000314795832   0.000436377928 -0.000314795833      0.501336185      0.83435888
12.66364             0.501078689      0.83436714   0.000437015488   -0.0003156961   0.000437015489 -0.000315696101      0.501843406     0.834024872
12.663668            0.501587451     0.834032183   0.000437653873 -0.000316599109   0.000437653874 -0.000316599109      0.502350901     0.833690208
12.663696            0.502096488     0.833696567   0.000438293081 -0.000317504867   0.000438293082 -0.000317504867       0.50285867     0.833354888
12.663724              0.5026058     0.833360291   0.000438933112 -0.000318413383   0.000438933113 -0.000318413383      0.503366712     0.833018911
12.663752            0.503115386     0.833023354   0.000439573966 -0.000319324667   0.000439573967 -0.000319324667      0.503875028     0.832682274
12.66378             0.503625247     0.832685755   0.000440215642 -0.000320238727   0.000440215643 -0.000320238728      0.504383618     0.832344977
12.663808            0.504135383     0.832347491   0.000440858141 -0.000321155574   0.000440858141 -0.000321155574      0.504892481     0.832007018
12.663836            0.504645793     0.832008562   0.000441501461 -0.000322075216   0.000441501461 -0.000322075216      0.505401618     0.831668396
12.663864            0.505156478     0.831668966   0.000442145602 -0.000322997662   0.000442145603 -0.000322997662      0.505911028      0.83132911
12.663892            0.505667437     0.831328703   0.000442790565 -0.000323922922   0.000442790565 -0.000323922922      0.506420712     0.830989157
12.66392              0.50617867     0.830987769   0.000443436348 -0.000324851004   0.000443436349 -0.000324851004      0.506930668     0.830648537
12.663948            0.506690178     0.830646164   0.000444082952 -0.000325781919   0.000444082952 -0.000325781919      0.507440898     0.830307248
12.663976            0.507201959     0.830303888   0.000444730375 -0.000326715676   0.000444730376 -0.000326715676      0.507951401     0.829965289
12.664004            0.507714015     0.829960937   0.000445378618 -0.000327652283   0.000445378619 -0.000327652284      0.508462178     0.829622658
12.664032            0.508226345     0.829617311    0.00044602768 -0.000328591751   0.000446027681 -0.000328591752      0.508973227     0.829279355
12.66406             0.508738949     0.829273009   0.000446677561 -0.000329534089   0.000446677561  -0.00032953409      0.509484549     0.828935377
12.664088            0.509251826     0.828928028    0.00044732826 -0.000330479307    0.00044732826 -0.000330479307      0.509996144     0.828590723
12.664116            0.509764978     0.828582368   0.000447979776 -0.000331427413   0.000447979777 -0.000331427414      0.510508012     0.828245392
12.664144            0.510278403     0.828236027    0.00044863211 -0.000332378418   0.000448632111 -0.000332378419      0.511020152     0.827899382
12.664172            0.510792102     0.827889004   0.000449285261 -0.000333332332   0.000449285261 -0.000333332332      0.511532565     0.827552693
12.6642              0.511306074     0.827541298   0.000449939228 -0.000334289162   0.000449939228 -0.000334289163      0.512045251     0.827205322
12.664228             0.51182032     0.827192906    0.00045059401 -0.000335248921   0.000450594011 -0.000335248921      0.512558209     0.826857268
12.664256            0.512334839     0.826843827   0.000451249608 -0.000336211616   0.000451249609 -0.000336211617      0.513071439     0.826508529
12.664284            0.512849632     0.826494061   0.000451906021 -0.000337177259   0.000451906021 -0.000337177259      0.513584942     0.826159105
12.664312            0.513364697     0.826143605   0.000452563248 -0.000338145858   0.000452563248 -0.000338145858      0.514098716     0.825808994
12.66434             0.513880036     0.825792458   0.000453221288 -0.000339117424   0.000453221289 -0.000339117424      0.514612763     0.825458194
12.664368            0.514395648     0.825440618   0.000453880142 -0.000340091966   0.000453880142 -0.000340091966      0.515127082     0.825106705
12.664396            0.514911533     0.825088085   0.000454539807 -0.000341069494   0.000454539808 -0.000341069494      0.515641673     0.824754523
12.664424             0.51542769     0.824734857   0.000455200285 -0.000342050018   0.000455200285 -0.000342050018      0.516156535     0.824401649
12.664452             0.51594412     0.824380932   0.000455861574 -0.000343033548   0.000455861574 -0.000343033549       0.51667167      0.82404808
12.66448             0.516460823     0.824026308   0.000456523673 -0.000344020095   0.000456523673 -0.000344020095      0.517187076     0.823693815
12.664508            0.516977799     0.823670985   0.000457186582 -0.000345009667   0.000457186583 -0.000345009668      0.517702753     0.823338853
12.664536            0.517495046     0.823314961     0.0004578503 -0.000346002276   0.000457850301 -0.000346002276      0.518218702     0.822983192
12.664564            0.518012566     0.822958234   0.000458514827 -0.000346997931   0.000458514828 -0.000346997931      0.518734922     0.822626831
12.664592            0.518530359     0.822600803   0.000459180162 -0.000347996642   0.000459180163 -0.000347996642      0.519251413     0.822269768
12.66462             0.519048423     0.822242667   0.000459846304 -0.000348998419   0.000459846305  -0.00034899842      0.519768175     0.821912002
12.664648             0.51956676     0.821883823   0.000460513252 -0.000350003274   0.000460513253 -0.000350003274      0.520285208     0.821553532
12.664676            0.520085368     0.821524271   0.000461181006 -0.000351011215   0.000461181007 -0.000351011215      0.520802513     0.821194355
12.664704            0.520604248     0.821164009   0.000461849565 -0.000352022253   0.000461849566 -0.000352022254      0.521320088      0.82083447
12.664732              0.5211234     0.820803035   0.000462518928 -0.000353036399   0.000462518928   -0.0003530364      0.521837933     0.820473876
12.66476             0.521642823     0.820441348   0.000463189094 -0.000354053663   0.000463189095 -0.000354053663      0.522356049     0.820112572
12.664788            0.522162517     0.820078947   0.000463860063 -0.000355074055   0.000463860064 -0.000355074055      0.522874436     0.819750555
12.664816            0.522682483     0.819715829   0.000464531834 -0.000356097586   0.000464531834 -0.000356097586      0.523393092     0.819387825
12.664844             0.52320272     0.819351994   0.000465204405 -0.000357124265   0.000465204405 -0.000357124266      0.523912019     0.819024379
12.664872            0.523723228      0.81898744   0.000465877776 -0.000358154105   0.000465877777 -0.000358154105      0.524431216     0.818660217
12.6649              0.524244007     0.818622165   0.000466551947 -0.000359187114   0.000466551947 -0.000359187114      0.524950683     0.818295337
12.664928            0.524765057     0.818256168   0.000467226916 -0.000360223304   0.000467226916 -0.000360223304      0.525470419     0.817929737
12.664956            0.525286378     0.817889447   0.000467902682 -0.000361262685   0.000467902682 -0.000361262686      0.525990426     0.817563415
12.664984            0.525807969     0.817522002   0.000468579245 -0.000362305269   0.000468579245 -0.000362305269      0.526510701     0.817196371
12.665012             0.52632983     0.817153829   0.000469256603 -0.000363351064   0.000469256603 -0.000363351065      0.527031246     0.816828603
12.66504             0.526851961     0.816784928   0.000469934755 -0.000364400083   0.000469934756 -0.000364400084      0.527552061     0.816460109
12.665068            0.527374363     0.816415298   0.000470613702 -0.000365452337   0.000470613702 -0.000365452337      0.528073144     0.816090888
12.665096            0.527897035     0.816044936   0.000471293441 -0.000366507834   0.000471293441 -0.000366507835      0.528594497     0.815720937
12.665124            0.528419976     0.815673841   0.000471973971 -0.000367566588   0.000471973972 -0.000367566588      0.529116118     0.815350256
12.665152            0.528943188     0.815302011   0.000472655292 -0.000368628608   0.000472655293 -0.000368628608      0.529638008     0.814978844
12.66518             0.529466668     0.814929446   0.000473337403 -0.000369693906   0.000473337403 -0.000369693906      0.530160167     0.814606698
12.665208            0.529990418     0.814556143   0.000474020302 -0.000370762492   0.000474020303 -0.000370762492      0.530682594     0.814233816
12.665236            0.530514438     0.814182101   0.000474703989 -0.000371834377   0.000474703989 -0.000371834377      0.531205289     0.813860198
12.665264            0.531038726     0.813807318   0.000475388462 -0.000372909573   0.000475388462 -0.000372909573      0.531728252     0.813485842
12.665292            0.531563284     0.813431792    0.00047607372  -0.00037398809    0.00047607372  -0.00037398809      0.532251483     0.813110746
12.66532              0.53208811     0.813055523   0.000476759762 -0.000375069939   0.000476759763  -0.00037506994      0.532774982     0.812734909
12.665348            0.532613205     0.812678509   0.000477446587 -0.000376155133   0.000477446588 -0.000376155133      0.533298749     0.812358329
12.665376            0.533138568     0.812300747   0.000478134194 -0.000377243681   0.000478134195 -0.000377243681      0.533822783     0.811981004
12.665404              0.5336642     0.811922237   0.000478822582 -0.000378335595   0.000478822582 -0.000378335595      0.534347085     0.811602934