! TOUCHSTONE file generated by CST MICROWAVE STUDIO
! Date and time: Wed Jul 31 19:40:22 2024
! Project name: WaveGuide_BPF-Ver4.1_U-shape_Ku_T3_C4_CWA_2.cst
! Parameters = {cavity_h=16; cavity_l0=10; cavity_l1=15.1637; cavity_l2=16.8708; cavity_l3=17.0657; cavity_l4=17.2375; cavity_l5=17.165; cavity_l6=17.6121; cavity_r=2.5; cavity_screw_l=0.5; cavity_screw_r=1.5; cavity_w=8; iris_h00=0; iris_h01=8.8406; iris_h112=0; iris_h12=5.6091; iris_h211=3.6679; iris_h23=5.2057; iris_h310=3.9677; iris_h34=5.0833; iris_h45=4.9232; iris_h49=4.6167; iris_h56=4.8028; iris_h58=4.4396; iris_h67=6.5684; iris_rx=0.1; iris_screw_l=0.5; iris_screw_r=1.5; iris_shift00=0; iris_shift112=0; iris_shift211=3.5; iris_shift310=0; iris_shift49=0; iris_shift58=3.5; iris_shift67=3.5; iris_tx=4.5; iris_tz=4.5; iris_w00=0; iris_w112=0; iris_w211=4; iris_w310=3.9677; iris_w49=4.6167; iris_w58=4; iris_w67=4; mesh_cavity=5; mesh_iris=7; mesh_screw=7; order=12; reset_all=0; sigma=4.8e+07}
! Header version: 2018
! Port assignment regex: !\s*Touchstone port\s*([0-9]+)\s*=\s*(CST MWS port|CST DS port)\s*([0-9]+|Zmin|Zmax)\s*\(\"(.*)\"\)(\s*mode\s*([0-9]+))?.*
! Touchstone port assignment:
! Touchstone port 1 = CST MWS port 1 ("")
! Touchstone port 2 = CST MWS port 2 ("")
# GHz S RI R 50
12.66                  0.2965357     0.936039696   0.000300008243 -0.000120786792   0.000300008242 -0.000120786792      0.298091596     0.935602952
12.660028            0.296916309     0.935905337   0.000300472869 -0.000121128523   0.000300472869 -0.000121128523      0.298470999     0.935468325
12.660056            0.297297049     0.935770742   0.000300938359 -0.000121471227   0.000300938358 -0.000121471227      0.298850554     0.935333457
12.660084            0.297677967     0.935635897   0.000301404705 -0.000121814917   0.000301404704 -0.000121814917      0.299230298     0.935198335
12.660112            0.298059106     0.935500786     0.0003018719 -0.000122159607   0.000301871899 -0.000122159607      0.299610264     0.935062948
12.66014             0.298440511     0.935365397   0.000302339936 -0.000122505311   0.000302339936 -0.000122505311      0.299990489     0.934927284
12.660168            0.298822181     0.935229728   0.000302808816 -0.000122852033   0.000302808815 -0.000122852033      0.300370973     0.934791343
12.660196            0.299204088     0.935093788   0.000303278546 -0.000123199769   0.000303278546 -0.000123199769      0.300751693     0.934655131
12.660224            0.299586232     0.934957576   0.000303749129 -0.000123548523   0.000303749129 -0.000123548522       0.30113265     0.934518649
12.660252            0.299968613     0.934821092   0.000304220566 -0.000123898296   0.000304220566 -0.000123898296      0.301513842     0.934381895
12.66028             0.300351231     0.934684335   0.000304692859 -0.000124249093   0.000304692859 -0.000124249093      0.301895271     0.934244869
12.660308            0.300734086     0.934547306    0.00030516601 -0.000124600917   0.000305166009 -0.000124600917      0.302276936     0.934107571
12.660336             0.30111718     0.934410002   0.000305640019 -0.000124953771   0.000305640019 -0.000124953771      0.302658838         0.93397
12.660364            0.301500511     0.934272425    0.00030611489 -0.000125307658    0.00030611489 -0.000125307658      0.303040977     0.933832155
12.660392             0.30188408     0.934134573   0.000306590623 -0.000125662583   0.000306590623 -0.000125662583      0.303423353     0.933694037
12.66042             0.302267887     0.933996446   0.000307067221 -0.000126018547   0.000307067221 -0.000126018547      0.303805967     0.933555644
12.660448            0.302651933     0.933858043   0.000307544685 -0.000126375556   0.000307544684 -0.000126375555      0.304188818     0.933416975
12.660476            0.303036218     0.933719363   0.000308023016 -0.000126733611   0.000308023016 -0.000126733611      0.304571908     0.933278032
12.660504            0.303420741     0.933580407   0.000308502217 -0.000127092716   0.000308502216 -0.000127092716      0.304955235     0.933138812
12.660532            0.303805504     0.933441174   0.000308982289 -0.000127452876   0.000308982288 -0.000127452876      0.305338801     0.932999315
12.66056             0.304190506     0.933301663   0.000309463234 -0.000127814092   0.000309463233 -0.000127814092      0.305722605     0.932859542
12.660588            0.304575748     0.933161873   0.000309945053 -0.000128176369   0.000309945053 -0.000128176369      0.306106648     0.932719491
12.660616            0.304961229     0.933021805   0.000310427749  -0.00012853971   0.000310427748  -0.00012853971       0.30649093     0.932579161
12.660644             0.30534695     0.932881457   0.000310911322 -0.000128904119   0.000310911322 -0.000128904119      0.306875451     0.932438553
12.660672            0.305732912     0.932740829   0.000311395776 -0.000129269598   0.000311395775 -0.000129269598      0.307260211     0.932297665
12.6607              0.306119114      0.93259992   0.000311881111 -0.000129636152    0.00031188111 -0.000129636152      0.307645211     0.932156498
12.660728            0.306505557      0.93245873   0.000312367329 -0.000130003784   0.000312367328 -0.000130003784      0.308030451      0.93201505
12.660756             0.30689224     0.932317259   0.000312854432 -0.000130372497   0.000312854432 -0.000130372497      0.308415931     0.931873322
12.660784            0.307279165     0.932175506   0.000313342422 -0.000130742295   0.000313342421 -0.000130742295      0.308801651     0.931731311
12.660812            0.307666331      0.93203347     0.0003138313 -0.000131113182   0.000313831299 -0.000131113182      0.309187611     0.931589019
12.66084             0.308053738     0.931891151   0.000314321068  -0.00013148516   0.000314321068  -0.00013148516      0.309573812     0.931446445
12.660868            0.308441387     0.931748547   0.000314811728 -0.000131858234   0.000314811728 -0.000131858234      0.309960254     0.931303587
12.660896            0.308829278      0.93160566   0.000315303282 -0.000132232408   0.000315303282 -0.000132232408      0.310346937     0.931160446
12.660924            0.309217412     0.931462488   0.000315795731 -0.000132607683   0.000315795731 -0.000132607683      0.310733861      0.93101702
12.660952            0.309605787      0.93131903   0.000316289078 -0.000132984065   0.000316289077 -0.000132984065      0.311121027      0.93087331
12.66098             0.309994405     0.931175286   0.000316783323 -0.000133361557   0.000316783323 -0.000133361557      0.311508435     0.930729315
12.661008            0.310383266     0.931031256   0.000317278469 -0.000133740163   0.000317278469 -0.000133740163      0.311896084     0.930585034
12.661036             0.31077237     0.930886939   0.000317774518 -0.000134119885   0.000317774517 -0.000134119885      0.312283976     0.930440466
12.661064            0.311161717     0.930742334    0.00031827147 -0.000134500728    0.00031827147 -0.000134500728       0.31267211     0.930295611
12.661092            0.311551308     0.930597441   0.000318769329 -0.000134882696   0.000318769329 -0.000134882696      0.313060487     0.930150469
12.66112             0.311941142     0.930452259   0.000319268096 -0.000135265792   0.000319268095 -0.000135265792      0.313449106     0.930005039
12.661148             0.31233122     0.930306787   0.000319767772 -0.000135650019   0.000319767771 -0.000135650019      0.313837969     0.929859321
12.661176            0.312721543     0.930161026   0.000320268359 -0.000136035382   0.000320268359 -0.000136035382      0.314227074     0.929713313
12.661204            0.313112109     0.930014975    0.00032076986 -0.000136421884   0.000320769859 -0.000136421884      0.314616424     0.929567015
12.661232             0.31350292     0.929868632   0.000321272275 -0.000136809529   0.000321272274 -0.000136809529      0.315006017     0.929420428
12.66126             0.313893976     0.929721998   0.000321775607  -0.00013719832   0.000321775607  -0.00013719832      0.315395853     0.929273549
12.661288            0.314285277     0.929575072   0.000322279858 -0.000137588262   0.000322279857 -0.000137588262      0.315785934     0.929126379
12.661316            0.314676823     0.929427853   0.000322785028 -0.000137979358   0.000322785028 -0.000137979358      0.316176259     0.928978917
12.661344            0.315068614     0.929280341   0.000323291121 -0.000138371612   0.000323291121 -0.000138371612      0.316566829     0.928831163
12.661372            0.315460651     0.929132535   0.000323798138 -0.000138765028   0.000323798138 -0.000138765027      0.316957644     0.928683115
12.6614              0.315852934     0.928984434   0.000324306081 -0.000139159609    0.00032430608 -0.000139159608      0.317348703     0.928534774
12.661428            0.316245463     0.928836039   0.000324814951 -0.000139555359    0.00032481495 -0.000139555359      0.317740008     0.928386138
12.661456            0.316638238     0.928687348    0.00032532475 -0.000139952282    0.00032532475 -0.000139952282      0.318131558     0.928237208
12.661484            0.317031259     0.928538361   0.000325835481 -0.000140350383    0.00032583548 -0.000140350383      0.318523354     0.928087982
12.661512            0.317424528     0.928389077   0.000326347144 -0.000140749664   0.000326347144 -0.000140749664      0.318915396     0.927938461
12.66154             0.317818043     0.928239496   0.000326859742  -0.00014115013   0.000326859742  -0.00014115013      0.319307683     0.927788643
12.661568            0.318211805     0.928089617   0.000327373277 -0.000141551785   0.000327373277 -0.000141551784      0.319700217     0.927638527
12.661596            0.318605815      0.92793944    0.00032788775 -0.000141954632    0.00032788775 -0.000141954632      0.320092998     0.927488114
12.661624            0.319000072     0.927788963   0.000328403164 -0.000142358675   0.000328403163 -0.000142358675      0.320486025     0.927337403
12.661652            0.319394577     0.927638187    0.00032891952 -0.000142763919   0.000328919519 -0.000142763919        0.3208793     0.927186393
12.66168              0.31978933     0.927487111   0.000329436819 -0.000143170367   0.000329436819 -0.000143170367      0.321272821     0.927035083
12.661708            0.320184332     0.927335734   0.000329955065 -0.000143578024   0.000329955064 -0.000143578023       0.32166659     0.926883474
12.661736            0.320579581     0.927184055   0.000330474258 -0.000143986892   0.000330474257 -0.000143986892      0.322060606     0.926731563
12.661764             0.32097508     0.927032075     0.0003309944 -0.000144396977     0.0003309944 -0.000144396977       0.32245487     0.926579352
12.661792            0.321370827     0.926879792   0.000331515494 -0.000144808282   0.000331515493 -0.000144808282      0.322849383     0.926426839
12.66182             0.321766824     0.926727206   0.000332037541 -0.000145220811    0.00033203754 -0.000145220811      0.323244143     0.926274023
12.661848             0.32216307     0.926574316   0.000332560543 -0.000145634569   0.000332560542 -0.000145634569      0.323639152     0.926120905
12.661876            0.322559565     0.926421122   0.000333084502 -0.000146049559   0.000333084501 -0.000146049559       0.32403441     0.925967483
12.661904             0.32295631     0.926267623   0.000333609419 -0.000146465785   0.000333609419 -0.000146465785      0.324429917     0.925813756
12.661932            0.323353305     0.926113819   0.000334135298 -0.000146883252   0.000334135297 -0.000146883252      0.324825673     0.925659725
12.66196             0.323750551     0.925959708   0.000334662139 -0.000147301963   0.000334662138 -0.000147301963      0.325221678     0.925505389
12.661988            0.324148046      0.92580529   0.000335189944 -0.000147721923   0.000335189943 -0.000147721923      0.325617933     0.925350747
12.662016            0.324545793     0.925650566   0.000335718715 -0.000148143136   0.000335718715 -0.000148143136      0.326014437     0.925195798
12.662044             0.32494379     0.925495533   0.000336248455 -0.000148565606   0.000336248454 -0.000148565606      0.326411192     0.925040542
12.662072            0.325342039     0.925340192   0.000336779165 -0.000148989336   0.000336779164 -0.000148989336      0.326808197     0.924884978
12.6621              0.325740538     0.925184541   0.000337310846 -0.000149414332   0.000337310846 -0.000149414332      0.327205452     0.924729105
12.662128             0.32613929     0.925028581   0.000337843501 -0.000149840598   0.000337843501 -0.000149840598      0.327602958     0.924572924
12.662156            0.326538293     0.924872311   0.000338377132 -0.000150268137   0.000338377132 -0.000150268137      0.328000715     0.924416434
12.662184            0.326937548     0.924715729   0.000338911741 -0.000150696954   0.000338911741 -0.000150696953      0.328398724     0.924259633
12.662212            0.327337055     0.924558836   0.000339447329 -0.000151127053   0.000339447329 -0.000151127052      0.328796983     0.924102521
12.66224             0.327736815     0.924401631   0.000339983898 -0.000151558438   0.000339983898 -0.000151558438      0.329195494     0.923945098
12.662268            0.328136827     0.924244113   0.000340521451 -0.000151991114   0.000340521451 -0.000151991113      0.329594257     0.923787362
12.662296            0.328537092     0.924086281   0.000341059989 -0.000152425084   0.000341059989 -0.000152425084      0.329993272     0.923629314
12.662324            0.328937611     0.923928136   0.000341599514 -0.000152860354   0.000341599514 -0.000152860354      0.330392539     0.923470953
12.662352            0.329338382     0.923769675   0.000342140028 -0.000153296927   0.000342140028 -0.000153296927      0.330792059     0.923312278
12.66238             0.329739407       0.9236109   0.000342681533 -0.000153734808   0.000342681533 -0.000153734808      0.331191831     0.923153289
12.662408            0.330140686     0.923451808   0.000343224031 -0.000154174001   0.000343224031 -0.000154174001      0.331591857     0.922993984
12.662436            0.330542219       0.9232924   0.000343767524 -0.000154614511   0.000343767523 -0.000154614511      0.331992135     0.922834364
12.662464            0.330944006     0.923132675   0.000344312013 -0.000155056341   0.000344312013 -0.000155056341      0.332392667     0.922674427
12.662492            0.331346048     0.922972632   0.000344857501 -0.000155499497   0.000344857501 -0.000155499497      0.332793453     0.922514173
12.66252             0.331748344      0.92281227    0.00034540399 -0.000155943982   0.000345403989 -0.000155943982      0.333194492     0.922353601
12.662548            0.332150895      0.92265159   0.000345951481 -0.000156389802    0.00034595148 -0.000156389801      0.333595785     0.922192712
12.662576            0.332553701      0.92249059   0.000346499976 -0.000156836959   0.000346499976 -0.000156836959      0.333997333     0.922031503
12.662604            0.332956763     0.922329269   0.000347049478  -0.00015728546   0.000347049478  -0.00015728546      0.334399135     0.921869975
12.662632             0.33336008     0.922167627   0.000347599988 -0.000157735308   0.000347599988 -0.000157735308      0.334801191     0.921708127
12.66266             0.333763653     0.922005664   0.000348151509 -0.000158186509   0.000348151508 -0.000158186508      0.335203503     0.921545958
12.662688            0.334167482     0.921843379   0.000348704042 -0.000158639065   0.000348704041 -0.000158639065       0.33560607     0.921383467
12.662716            0.334571567     0.921680771   0.000349257589 -0.000159092983   0.000349257588 -0.000159092983      0.336008892     0.921220654
12.662744            0.334975908     0.921517839   0.000349812152 -0.000159548266   0.000349812151 -0.000159548265       0.33641197     0.921057519
12.662772            0.335380506     0.921354583   0.000350367733 -0.000160004919   0.000350367732 -0.000160004918      0.336815304      0.92089406
12.6628              0.335785361     0.921191002   0.000350924334 -0.000160462946   0.000350924334 -0.000160462946      0.337218893     0.920730278
12.662828            0.336190473     0.921027096   0.000351481958 -0.000160922353   0.000351481957 -0.000160922353      0.337622739      0.92056617
12.662856            0.336595843     0.920862863   0.000352040605 -0.000161383143   0.000352040605 -0.000161383143      0.338026842     0.920401738
12.662884             0.33700147     0.920698304   0.000352600278 -0.000161845322   0.000352600278 -0.000161845322      0.338431201     0.920236979
12.662912            0.337407355     0.920533418    0.00035316098 -0.000162308894   0.000353160979 -0.000162308894      0.338835817     0.920071894
12.66294             0.337813498     0.920368203   0.000353722711 -0.000162773864   0.000353722711 -0.000162773864       0.33924069     0.919906482
12.662968            0.338219899      0.92020266   0.000354285474 -0.000163240236   0.000354285474 -0.000163240236      0.339645821     0.919740741
12.662996            0.338626558     0.920036787   0.000354849272 -0.000163708015   0.000354849271 -0.000163708015      0.340051209     0.919574672
12.663024            0.339033477     0.919870584   0.000355414105 -0.000164177206   0.000355414104 -0.000164177206      0.340456856     0.919408274
12.663052            0.339440654     0.919704051   0.000355979976 -0.000164647814   0.000355979975 -0.000164647814       0.34086276     0.919241546
12.66308              0.33984809     0.919537186   0.000356546887 -0.000165119842   0.000356546886 -0.000165119842      0.341268923     0.919074488
12.663108            0.340255786     0.919369989   0.000357114839 -0.000165593297   0.000357114839 -0.000165593297      0.341675344     0.918907098
12.663136            0.340663741     0.919202459   0.000357683836 -0.000166068183   0.000357683836 -0.000166068183      0.342082024     0.918739377
12.663164            0.341071956     0.919034596   0.000358253879 -0.000166544504   0.000358253878 -0.000166544504      0.342488962     0.918571322
12.663192            0.341480431     0.918866399   0.000358824969 -0.000167022265   0.000358824969 -0.000167022265      0.342896161     0.918402935
12.66322             0.341889166     0.918697868    0.00035939711 -0.000167501472   0.000359397109 -0.000167501472      0.343303618     0.918234214
12.663248            0.342298162     0.918529001   0.000359970302 -0.000167982129   0.000359970302 -0.000167982129      0.343711335     0.918065158
12.663276            0.342707419     0.918359798   0.000360544549 -0.000168464241   0.000360544548 -0.000168464241      0.344119312     0.917895768
12.663304            0.343116936     0.918190258   0.000361119851 -0.000168947813    0.00036111985 -0.000168947812      0.344527549     0.917726041
12.663332            0.343526715     0.918020381   0.000361696211 -0.000169432849   0.000361696211 -0.000169432849      0.344936047     0.917555978
12.66336             0.343936755     0.917850165   0.000362273632 -0.000169919355   0.000362273631 -0.000169919355      0.345344805     0.917385577
12.663388            0.344347057     0.917679611   0.000362852114 -0.000170407336   0.000362852114 -0.000170407336      0.345753824     0.917214839
12.663416             0.34475762     0.917508718   0.000363431661 -0.000170896796    0.00036343166 -0.000170896796      0.346163104     0.917043762
12.663444            0.345168446     0.917337484   0.000364012273 -0.000171387741   0.000364012273 -0.000171387741      0.346572645     0.916872345
12.663472            0.345579534      0.91716591   0.000364593954 -0.000171880176   0.000364593954 -0.000171880176      0.346982447     0.916700589
12.6635              0.345990884     0.916993994   0.000365176705 -0.000172374105   0.000365176705 -0.000172374105      0.347392512     0.916528492
12.663528            0.346402498     0.916821736   0.000365760529 -0.000172869534   0.000365760528 -0.000172869534      0.347802838     0.916356054
12.663556            0.346814374     0.916649135   0.000366345426 -0.000173366467   0.000366345426 -0.000173366467      0.348213426     0.916183274
12.663584            0.347226513     0.916476191     0.0003669314  -0.00017386491     0.0003669314  -0.00017386491      0.348624277     0.916010151
12.663612            0.347638916     0.916302902   0.000367518453 -0.000174364868   0.000367518452 -0.000174364868      0.349035391     0.915836685
12.66364             0.348051583     0.916129268   0.000368106586 -0.000174866346   0.000368106585 -0.000174866346      0.349446767     0.915662874
12.663668            0.348464513     0.915955289   0.000368695801 -0.000175369349     0.0003686958 -0.000175369349      0.349858406     0.915488719
12.663696            0.348877707     0.915780963   0.000369286101 -0.000175873883     0.0003692861 -0.000175873883      0.350270309     0.915314219
12.663724            0.349291166      0.91560629   0.000369877488 -0.000176379952   0.000369877487 -0.000176379951      0.350682475     0.915139372
12.663752             0.34970489      0.91543127   0.000370469963 -0.000176887561   0.000370469963 -0.000176887561      0.351094904     0.914964178
12.66378             0.350118878     0.915255901   0.000371063529 -0.000177396716   0.000371063529 -0.000177396716      0.351507598     0.914788637
12.663808            0.350533131     0.915080183   0.000371658188 -0.000177907422   0.000371658188 -0.000177907422      0.351920556     0.914612747
12.663836             0.35094765     0.914904115   0.000372253942 -0.000178419685   0.000372253942 -0.000178419685      0.352333779     0.914436509
12.663864            0.351362434     0.914727696   0.000372850793 -0.000178933509   0.000372850793 -0.000178933509      0.352747266      0.91425992
12.663892            0.351777483     0.914550926   0.000373448744   -0.0001794489   0.000373448743   -0.0001794489      0.353161018     0.914082982
12.66392             0.352192799     0.914373804   0.000374047795 -0.000179965863   0.000374047794 -0.000179965863      0.353575035     0.913905692
12.663948            0.352608381      0.91419633    0.00037464795 -0.000180484404   0.000374647949 -0.000180484404      0.353989317      0.91372805
12.663976            0.353024229     0.914018502    0.00037524921 -0.000181004528   0.000375249209 -0.000181004528      0.354403865     0.913550056
12.664004            0.353440344     0.913840319   0.000375851577 -0.000181526239   0.000375851577 -0.000181526239      0.354818679     0.913371708
12.664032            0.353856726     0.913661782   0.000376455054 -0.000182049545   0.000376455054 -0.000182049545      0.355233759     0.913193007
12.66406             0.354273374      0.91348289   0.000377059643 -0.000182574449   0.000377059643 -0.000182574449      0.355649105     0.913013951
12.664088             0.35469029     0.913303641   0.000377665346 -0.000183100958   0.000377665345 -0.000183100958      0.356064718     0.912834539
12.664116            0.355107474     0.913124034   0.000378272164 -0.000183629077   0.000378272164 -0.000183629077      0.356480597     0.912654771
12.664144            0.355524925     0.912944071   0.000378880101 -0.000184158811     0.0003788801 -0.000184158811      0.356896743     0.912474646
12.664172            0.355942645     0.912763748   0.000379489158 -0.000184690166   0.000379489157 -0.000184690166      0.357313157     0.912294164
12.6642              0.356360632     0.912583066   0.000380099337 -0.000185223147   0.000380099336 -0.000185223147      0.357729838     0.912113323
12.664228            0.356778888     0.912402025    0.00038071064 -0.000185757761   0.000380710639  -0.00018575776      0.358146786     0.911932123
12.664256            0.357197413     0.912220622    0.00038132307 -0.000186294011   0.000381323069 -0.000186294011      0.358564002     0.911750564
12.664284            0.357616207     0.912038859   0.000381936628 -0.000186831905   0.000381936627 -0.000186831905      0.358981487     0.911568644
12.664312            0.358035269     0.911856733   0.000382551317 -0.000187371448   0.000382551317 -0.000187371448       0.35939924     0.911386362
12.66434             0.358454602     0.911674244   0.000383167139 -0.000187912644   0.000383167138 -0.000187912644      0.359817261     0.911203719
12.664368            0.358874203     0.911491391   0.000383784096 -0.000188455501   0.000383784095 -0.000188455501      0.360235551     0.911020712
12.664396            0.359294075     0.911308174    0.00038440219 -0.000189000023    0.00038440219 -0.000189000023       0.36065411     0.910837343
12.664424            0.359714216     0.911124592   0.000385021423 -0.000189546217   0.000385021423 -0.000189546217      0.361072938     0.910653609
12.664452            0.360134628     0.910940644   0.000385641798 -0.000190094087   0.000385641798 -0.000190094087      0.361492036     0.910469509
12.66448             0.360555311     0.910756329   0.000386263317  -0.00019064364   0.000386263316  -0.00019064364      0.361911404     0.910285045
12.664508            0.360976264     0.910571647   0.000386885981 -0.000191194882    0.00038688598 -0.000191194882      0.362331041     0.910100213
12.664536            0.361397488     0.910386596   0.000387509793 -0.000191747818   0.000387509792 -0.000191747818      0.362750949     0.909915015
12.664564            0.361818983     0.910201177   0.000388134755 -0.000192302454   0.000388134754 -0.000192302453      0.363171127     0.909729448
12.664592             0.36224075     0.910015388   0.000388760869 -0.000192858795   0.000388760868 -0.000192858795      0.363591575     0.909543513
12.66462             0.362662788     0.909829228   0.000389388137 -0.000193416849   0.000389388137 -0.000193416848      0.364012295     0.909357208
12.664648            0.363085099     0.909642697   0.000390016562 -0.000193976619   0.000390016562 -0.000193976619      0.364433285     0.909170533
12.664676            0.363507681     0.909455795   0.000390646146 -0.000194538114   0.000390646145 -0.000194538113      0.364854547     0.908983486
12.664704            0.363930536     0.909268519    0.00039127689 -0.000195101337    0.00039127689 -0.000195101337       0.36527608     0.908796068
12.664732            0.364353663      0.90908087   0.000391908798 -0.000195666296   0.000391908797 -0.000195666296      0.365697886     0.908608278
12.66476             0.364777063     0.908892847    0.00039254187 -0.000196232996    0.00039254187 -0.000196232996      0.366119963     0.908420113
12.664788            0.365200736     0.908704449    0.00039317611 -0.000196801443    0.00039317611 -0.000196801443      0.366542312     0.908231575
12.664816            0.365624683     0.908515675    0.00039381152 -0.000197371643   0.000393811519 -0.000197371643      0.366964934     0.908042662
12.664844            0.366048903     0.908326524   0.000394448101 -0.000197943602     0.0003944481 -0.000197943602      0.367387828     0.907853373
12.664872            0.366473397     0.908136996   0.000395085856 -0.000198517327   0.000395085855 -0.000198517327      0.367810996     0.907663708
12.6649              0.366898164     0.907947089   0.000395724787 -0.000199092823   0.000395724787 -0.000199092823      0.368234436     0.907473666
12.664928            0.367323206     0.907756804   0.000396364896 -0.000199670096   0.000396364896 -0.000199670096       0.36865815     0.907283245
12.664956            0.367748522     0.907566139   0.000397006186 -0.000200249153   0.000397006186 -0.000200249153      0.369082138     0.907092446
12.664984            0.368174113     0.907375093   0.000397648659 -0.000200829999   0.000397648658 -0.000200829999      0.369506399     0.906901267
12.665012            0.368599979     0.907183666   0.000398292316 -0.000201412641   0.000398292316 -0.000201412641      0.369930935     0.906709708
12.66504              0.36902612     0.906991857   0.000398937161 -0.000201997085    0.00039893716 -0.000201997085      0.370355745     0.906517768
12.665068            0.369452536     0.906799666   0.000399583194 -0.000202583337   0.000399583194 -0.000202583337      0.370780829     0.906325445
12.665096            0.369879227      0.90660709   0.000400230419 -0.000203171404   0.000400230419 -0.000203171404      0.371206188      0.90613274
12.665124            0.370306195      0.90641413   0.000400878838 -0.000203761291   0.000400878838 -0.000203761291      0.371631822     0.905939652
12.665152            0.370733439     0.906220785   0.000401528453 -0.000204353005   0.000401528452 -0.000204353005      0.372057732     0.905746179
12.66518             0.371160958     0.906027053   0.000402179265 -0.000204946552   0.000402179265 -0.000204946552      0.372483916     0.905552321
12.665208            0.371588755     0.905832935   0.000402831278 -0.000205541939   0.000402831278 -0.000205541939      0.372910377     0.905358077
12.665236            0.372016828     0.905638429   0.000403484494 -0.000206139172   0.000403484493 -0.000206139172      0.373337113     0.905163446
12.665264            0.372445178     0.905443534   0.000404138914 -0.000206738257   0.000404138914 -0.000206738257      0.373764126     0.904968428
12.665292            0.372873805      0.90524825   0.000404794541 -0.000207339201   0.000404794541 -0.000207339201      0.374191415     0.904773021
12.66532             0.373302709     0.905052576   0.000405451378 -0.000207942009   0.000405451377 -0.000207942009       0.37461898     0.904577225
12.665348            0.373731892     0.904856512   0.000406109426  -0.00020854669   0.000406109425  -0.00020854669      0.375046823      0.90438104
12.665376            0.374161352     0.904660055   0.000406768687 -0.000209153248   0.000406768687 -0.000209153248      0.375474942     0.904184463
12.665404             0.37459109     0.904463206   0.000407429164 -0.000209761691   0.000407429164 -0.000209761691      0.375903339     0.903987495