! TOUCHSTONE file generated by CST MICROWAVE STUDIO
! Date and time: Wed Jul 31 19:46:39 2024
! Project name: WaveGuide_BPF-Ver4.1_U-shape_Ku_T3_C4_CWA_2.cst
! Parameters = {cavity_h=16; cavity_l0=10; cavity_l1=15.2097; cavity_l2=16.8806; cavity_l3=17.104; cavity_l4=17.2367; cavity_l5=17.1242; cavity_l6=17.5757; cavity_r=2.5; cavity_screw_l=0.5; cavity_screw_r=1.5; cavity_w=8; iris_h00=0; iris_h01=8.8149; iris_h112=0; iris_h12=5.5944; iris_h211=3.6654; iris_h23=5.209; iris_h310=3.9781; iris_h34=5.0701; iris_h45=4.9232; iris_h49=4.6164; iris_h56=4.8043; iris_h58=4.4467; iris_h67=6.5773; iris_rx=0.1; iris_screw_l=0.5; iris_screw_r=1.5; iris_shift00=0; iris_shift112=0; iris_shift211=3.5; iris_shift310=0; iris_shift49=0; iris_shift58=3.5; iris_shift67=3.5; iris_tx=4.5; iris_tz=4.5; iris_w00=0; iris_w112=0; iris_w211=4; iris_w310=3.9781; iris_w49=4.6164; iris_w58=4; iris_w67=4; mesh_cavity=5; mesh_iris=7; mesh_screw=7; order=12; reset_all=0; sigma=4.8e+07}
! Header version: 2018
! Port assignment regex: !\s*Touchstone port\s*([0-9]+)\s*=\s*(CST MWS port|CST DS port)\s*([0-9]+|Zmin|Zmax)\s*\(\"(.*)\"\)(\s*mode\s*([0-9]+))?.*
! Touchstone port assignment:
! Touchstone port 1 = CST MWS port 1 ("")
! Touchstone port 2 = CST MWS port 2 ("")
# GHz S RI R 50
12.66                0.353900332     0.912693564   0.000357244584 -0.000173843704   0.000357244584 -0.000173843704      0.359894958     0.910363804
12.660028             0.35433592     0.912505943   0.000357809145 -0.000174349005   0.000357809145 -0.000174349005      0.360330114     0.910173021
12.660056            0.354771797     0.912317935   0.000358374706 -0.000174855843   0.000358374706 -0.000174855843      0.360765532     0.909981856
12.660084            0.355207958     0.912129539   0.000358941269 -0.000175364225   0.000358941269 -0.000175364224      0.361201221     0.909790306
12.660112            0.355644404     0.911940756   0.000359508834 -0.000175874155   0.000359508834 -0.000175874154      0.361637188     0.909598367
12.66014             0.356081132     0.911751586   0.000360077402  -0.00017638564   0.000360077402  -0.00017638564      0.362073442     0.909406035
12.660168            0.356518142     0.911562027   0.000360646974 -0.000176898685   0.000360646974 -0.000176898685      0.362509981      0.90921331
12.660196            0.356955436     0.911372078   0.000361217554 -0.000177413296   0.000361217554 -0.000177413296      0.362946803     0.909020193
12.660224            0.357393013     0.911181739   0.000361789143 -0.000177929476   0.000361789143 -0.000177929476      0.363383905     0.908826682
12.660252            0.357830876     0.910991009   0.000362361742 -0.000178447233   0.000362361742 -0.000178447232       0.36382129     0.908632778
12.66028             0.358269022     0.910799887   0.000362935353 -0.000178966569   0.000362935353 -0.000178966569      0.364258957     0.908438478
12.660308            0.358707454     0.910608372   0.000363509978 -0.000179487492   0.000363509978 -0.000179487492      0.364696906     0.908243783
12.660336             0.35914617     0.910416463   0.000364085618 -0.000180010007   0.000364085618 -0.000180010007      0.365135138     0.908048692
12.660364            0.359585172      0.91022416   0.000364662276 -0.000180534118   0.000364662276 -0.000180534118      0.365573652     0.907853203
12.660392            0.360024459     0.910031461   0.000365239953 -0.000181059831   0.000365239953 -0.000181059831       0.36601245     0.907657317
12.66042             0.360464031     0.909838367    0.00036581865 -0.000181587152    0.00036581865 -0.000181587152       0.36645153     0.907461031
12.660448             0.36090389     0.909644875    0.00036639837 -0.000182116086    0.00036639837 -0.000182116086      0.366890894     0.907264346
12.660476            0.361344034     0.909450986   0.000366979114 -0.000182646638   0.000366979115 -0.000182646638      0.367330542     0.907067261
12.660504            0.361784465     0.909256698   0.000367560885 -0.000183178814   0.000367560885 -0.000183178814      0.367770474     0.906869774
12.660532            0.362225182     0.909062011   0.000368143682  -0.00018371262   0.000368143682  -0.00018371262      0.368210689     0.906671885
12.66056             0.362666186     0.908866923   0.000368727509  -0.00018424806   0.000368727509  -0.00018424806      0.368651189     0.906473593
12.660588            0.363107477     0.908671435   0.000369312367 -0.000184785141   0.000369312367 -0.000184785141      0.369091973     0.906274897
12.660616            0.363549055     0.908475544   0.000369898258 -0.000185323867   0.000369898258 -0.000185323867      0.369533042     0.906075797
12.660644            0.363990921     0.908279251   0.000370485183 -0.000185864245   0.000370485183 -0.000185864245      0.369974396     0.905876291
12.660672            0.364433074     0.908082554   0.000371073145  -0.00018640628   0.000371073145  -0.00018640628      0.370416035     0.905676378
12.6607              0.364875515     0.907885453   0.000371662144 -0.000186949978   0.000371662144 -0.000186949977      0.370857959     0.905476059
12.660728            0.365318244     0.907687947   0.000372252183 -0.000187495343   0.000372252184 -0.000187495343      0.371300169     0.905275331
12.660756            0.365761261     0.907490034   0.000372843264 -0.000188042383   0.000372843264 -0.000188042383      0.371742664     0.905074195
12.660784            0.366204567     0.907291715   0.000373435388 -0.000188591102   0.000373435388 -0.000188591102      0.372185446     0.904872649
12.660812            0.366648162     0.907092988   0.000374028556 -0.000189141507   0.000374028556 -0.000189141506      0.372628513     0.904670692
12.66084             0.367092045     0.906893852   0.000374622771 -0.000189693602   0.000374622771 -0.000189693602      0.373071867     0.904468324
12.660868            0.367536218     0.906694306   0.000375218035 -0.000190247394   0.000375218035 -0.000190247394      0.373515508     0.904265543
12.660896             0.36798068      0.90649435   0.000375814348 -0.000190802888   0.000375814348 -0.000190802888      0.373959436      0.90406235
12.660924            0.368425432     0.906293983   0.000376411714 -0.000191360091   0.000376411714 -0.000191360091       0.37440365     0.903858742
12.660952            0.368870473     0.906093204   0.000377010132 -0.000191919008   0.000377010132 -0.000191919007      0.374848152      0.90365472
12.66098             0.369315805     0.905892012   0.000377609606 -0.000192479644   0.000377609607 -0.000192479644      0.375292941     0.903450282
12.661008            0.369761427     0.905690406   0.000378210138 -0.000193042006   0.000378210138 -0.000193042006      0.375738018     0.903245427
12.661036            0.370207339     0.905488386   0.000378811727 -0.000193606099   0.000378811727 -0.000193606099      0.376183383     0.903040155
12.661064            0.370653542      0.90528595   0.000379414378  -0.00019417193   0.000379414378  -0.00019417193      0.376629036     0.902834465
12.661092            0.371100036     0.905083097    0.00038001809 -0.000194739504    0.00038001809 -0.000194739504      0.377074977     0.902628355
12.66112             0.371546821     0.904879828   0.000380622867 -0.000195308827   0.000380622867 -0.000195308827      0.377521206     0.902421825
12.661148            0.371993898      0.90467614   0.000381228709 -0.000195879905   0.000381228709 -0.000195879905      0.377967725     0.902214875
12.661176            0.372441266     0.904472033   0.000381835618 -0.000196452744   0.000381835618 -0.000196452744      0.378414532     0.902007502
12.661204            0.372888926     0.904267506   0.000382443597 -0.000197027351   0.000382443597 -0.000197027351      0.378861629     0.901799707
12.661232            0.373336877     0.904062558   0.000383052647  -0.00019760373   0.000383052647  -0.00019760373      0.379309014     0.901591488
12.66126             0.373785122     0.903857189   0.000383662769 -0.000198181889   0.000383662769 -0.000198181889       0.37975669     0.901382845
12.661288            0.374233658     0.903651397   0.000384273966 -0.000198761832   0.000384273966 -0.000198761832      0.380204655     0.901173776
12.661316            0.374682487     0.903445182   0.000384886238 -0.000199343567   0.000384886238 -0.000199343567       0.38065291     0.900964281
12.661344             0.37513161     0.903238542   0.000385499589   -0.0001999271   0.000385499589 -0.000199927099      0.381101456     0.900754359
12.661372            0.375581025     0.903031477   0.000386114019 -0.000200512435   0.000386114019 -0.000200512435      0.381550292     0.900544009
12.6614              0.376030734     0.902823986   0.000386729531 -0.000201099581   0.000386729531 -0.000201099581      0.381999418      0.90033323
12.661428            0.376480736     0.902616068   0.000387346126 -0.000201688542   0.000387346126 -0.000201688542      0.382448835     0.900122021
12.661456            0.376931032     0.902407722   0.000387963805 -0.000202279325   0.000387963806 -0.000202279325      0.382898544     0.899910381
12.661484            0.377381622     0.902198947   0.000388582572 -0.000202871937   0.000388582572 -0.000202871936      0.383348543      0.89969831
12.661512            0.377832506     0.901989743   0.000389202426 -0.000203466382   0.000389202426 -0.000203466382      0.383798834     0.899485806
12.66154             0.378283684     0.901780107   0.000389823371 -0.000204062669   0.000389823371 -0.000204062669      0.384249417     0.899272868
12.661568            0.378735158     0.901570041   0.000390445408 -0.000204660802   0.000390445408 -0.000204660802      0.384700292     0.899059497
12.661596            0.379186926     0.901359541   0.000391068538 -0.000205260789   0.000391068538 -0.000205260789      0.385151458     0.898845689
12.661624            0.379638989     0.901148609   0.000391692763 -0.000205862636   0.000391692763 -0.000205862636      0.385602918     0.898631446
12.661652            0.380091348     0.900937242   0.000392318086 -0.000206466348   0.000392318086 -0.000206466348      0.386054669     0.898416766
12.66168             0.380544002     0.900725439   0.000392944507 -0.000207071933   0.000392944507 -0.000207071933      0.386506713     0.898201647
12.661708            0.380996951     0.900513201   0.000393572029 -0.000207679397   0.000393572029 -0.000207679397      0.386959051      0.89798609
12.661736            0.381450197     0.900300526   0.000394200654 -0.000208288746   0.000394200654 -0.000208288746      0.387411681     0.897770092
12.661764            0.381903739     0.900087412   0.000394830382 -0.000208899986   0.000394830382 -0.000208899986      0.387864605     0.897553654
12.661792            0.382357577      0.89987386   0.000395461216 -0.000209513125   0.000395461216 -0.000209513125      0.388317822     0.897336774
12.66182             0.382811712     0.899659868   0.000396093158 -0.000210128169   0.000396093158 -0.000210128168      0.388771333     0.897119451
12.661848            0.383266144     0.899445435   0.000396726209 -0.000210745123   0.000396726209 -0.000210745123      0.389225138     0.896901685
12.661876            0.383720873      0.89923056   0.000397360372 -0.000211363996   0.000397360372 -0.000211363996      0.389679237     0.896683474
12.661904            0.384175899     0.899015242   0.000397995647 -0.000211984793   0.000397995647 -0.000211984792      0.390133631     0.896464817
12.661932            0.384631222     0.898799481   0.000398632036  -0.00021260752   0.000398632037  -0.00021260752      0.390588319     0.896245715
12.66196             0.385086843     0.898583276   0.000399269542 -0.000213232186   0.000399269543 -0.000213232186      0.391043302     0.896026164
12.661988            0.385542762     0.898366625   0.000399908167 -0.000213858795   0.000399908167 -0.000213858795       0.39149858     0.895806166
12.662016            0.385998979     0.898149527    0.00040054791 -0.000214487356   0.000400547911 -0.000214487356      0.391954153     0.895585718
12.662044            0.386455495     0.897931982   0.000401188776 -0.000215117874   0.000401188776 -0.000215117874      0.392410022     0.895364819
12.662072            0.386912309     0.897713989   0.000401830765 -0.000215750356   0.000401830765 -0.000215750356      0.392866186      0.89514347
12.6621              0.387369422     0.897495546   0.000402473879  -0.00021638481   0.000402473879  -0.00021638481      0.393322646     0.894921668
12.662128            0.387826833     0.897276653   0.000403118119 -0.000217021242    0.00040311812 -0.000217021241      0.393779402     0.894699414
12.662156            0.388284544     0.897057309   0.000403763489 -0.000217659658   0.000403763489 -0.000217659658      0.394236455     0.894476705
12.662184            0.388742555     0.896837513   0.000404409988 -0.000218300066   0.000404409988 -0.000218300065      0.394693804     0.894253541
12.662212            0.389200865     0.896617264    0.00040505762 -0.000218942472    0.00040505762 -0.000218942472      0.395151449     0.894029921
12.66224             0.389659474      0.89639656   0.000405706386 -0.000219586883   0.000405706386 -0.000219586883      0.395609392     0.893805844
12.662268            0.390118384     0.896175401   0.000406356287 -0.000220233307   0.000406356287 -0.000220233307      0.396067631     0.893581309
12.662296            0.390577594     0.895953787   0.000407007325  -0.00022088175   0.000407007325 -0.000220881749      0.396526168     0.893356315
12.662324            0.391037105     0.895731715   0.000407659503 -0.000221532218   0.000407659503 -0.000221532218      0.396985002     0.893130862
12.662352            0.391496916     0.895509185   0.000408312821  -0.00022218472   0.000408312821  -0.00022218472      0.397444134     0.892904947
12.66238             0.391957028     0.895286196   0.000408967282 -0.000222839263   0.000408967282 -0.000222839262      0.397903564     0.892678571
12.662408            0.392417442     0.895062747   0.000409622887 -0.000223495852   0.000409622887 -0.000223495852      0.398363291     0.892451731
12.662436            0.392878156     0.894838838   0.000410279638 -0.000224154495   0.000410279638 -0.000224154495      0.398823318     0.892224428
12.662464            0.393339172     0.894614466   0.000410937537   -0.0002248152   0.000410937537   -0.0002248152      0.399283642      0.89199666
12.662492             0.39380049     0.894389631   0.000411596585 -0.000225477974   0.000411596585 -0.000225477973      0.399744266     0.891768426
12.66252              0.39426211     0.894164332   0.000412256785 -0.000226142822   0.000412256785 -0.000226142822      0.400205188     0.891539725
12.662548            0.394724032     0.893938569   0.000412918138 -0.000226809754   0.000412918138 -0.000226809754      0.400666409     0.891310556
12.662576            0.395186256     0.893712339   0.000413580645 -0.000227478776   0.000413580646 -0.000227478776       0.40112793     0.891080919
12.662604            0.395648783     0.893485643    0.00041424431 -0.000228149895    0.00041424431 -0.000228149895       0.40158975     0.890850811
12.662632            0.396111613     0.893258478   0.000414909132 -0.000228823118   0.000414909132 -0.000228823118       0.40205187     0.890620233
12.66266             0.396574746     0.893030845   0.000415575114 -0.000229498454   0.000415575114 -0.000229498453      0.402514289     0.890389183
12.662688            0.397038182     0.892802741   0.000416242258 -0.000230175908   0.000416242258 -0.000230175908      0.402977009      0.89015766
12.662716            0.397501921     0.892574167   0.000416910566 -0.000230855489   0.000416910566 -0.000230855489       0.40344003     0.889925664
12.662744            0.397965964      0.89234512   0.000417580038 -0.000231537203   0.000417580038 -0.000231537203       0.40390335     0.889693192
12.662772            0.398430311     0.892115601   0.000418250678 -0.000232221059   0.000418250678 -0.000232221059      0.404366972     0.889460244
12.6628              0.398894962     0.891885607   0.000418922486 -0.000232907064   0.000418922486 -0.000232907064      0.404830894      0.88922682
12.662828            0.399359918     0.891655139   0.000419595465 -0.000233595225   0.000419595465 -0.000233595225      0.405295117     0.888992917
12.662856            0.399825177     0.891424194   0.000420269616 -0.000234285549   0.000420269616 -0.000234285549      0.405759642     0.888758535
12.662884            0.400290742     0.891192772    0.00042094494 -0.000234978045   0.000420944941 -0.000234978044      0.406224468     0.888523674
12.662912            0.400756611     0.890960872   0.000421621441 -0.000235672719   0.000421621441 -0.000235672719      0.406689596     0.888288331
12.66294             0.401222786     0.890728493   0.000422299118 -0.000236369579   0.000422299119 -0.000236369579      0.407155026     0.888052506
12.662968            0.401689265     0.890495634   0.000422977975 -0.000237068634   0.000422977975 -0.000237068633      0.407620758     0.887816198
12.662996            0.402156051     0.890262293   0.000423658013 -0.000237769889   0.000423658013 -0.000237769889      0.408086792     0.887579406
12.663024            0.402623142      0.89002847   0.000424339233 -0.000238473354   0.000424339233 -0.000238473354      0.408553129     0.887342129
12.663052            0.403090538     0.889794164   0.000425021637 -0.000239179036   0.000425021637 -0.000239179036      0.409019768     0.887104365
12.66308             0.403558241     0.889559373   0.000425705227 -0.000239886943   0.000425705227 -0.000239886943      0.409486711     0.886866115
12.663108            0.404026251     0.889324097   0.000426390005 -0.000240597082   0.000426390005 -0.000240597081      0.409953956     0.886627375
12.663136            0.404494567     0.889088334   0.000427075973 -0.000241309461   0.000427075973  -0.00024130946      0.410421505     0.886388147
12.663164             0.40496319     0.888852084   0.000427763131 -0.000242024087   0.000427763131 -0.000242024087      0.410889357     0.886148427
12.663192            0.405432119     0.888615345   0.000428451483  -0.00024274097   0.000428451483  -0.00024274097      0.411357513     0.885908217
12.66322             0.405901356     0.888378116   0.000429141029 -0.000243460116   0.000429141029 -0.000243460116      0.411825973     0.885667513
12.663248              0.4063709     0.888140397   0.000429831771 -0.000244181534   0.000429831771 -0.000244181534      0.412294736     0.885426316
12.663276            0.406840752     0.887902186   0.000430523711 -0.000244905231   0.000430523711 -0.000244905231      0.412763804     0.885184624
12.663304            0.407310912     0.887663482   0.000431216851 -0.000245631216   0.000431216851 -0.000245631216      0.413233177     0.884942437
12.663332            0.407781379     0.887424283   0.000431911192 -0.000246359496   0.000431911193 -0.000246359496      0.413702854     0.884699752
12.66336             0.408252155      0.88718459   0.000432606737  -0.00024709008   0.000432606737  -0.00024709008      0.414172836     0.884456569
12.663388            0.408723239     0.886944401   0.000433303486 -0.000247822975   0.000433303486 -0.000247822975      0.414643123     0.884212888
12.663416            0.409194632     0.886703715   0.000434001442  -0.00024855819   0.000434001442  -0.00024855819      0.415113715     0.883968706
12.663444            0.409666333      0.88646253   0.000434700607 -0.000249295733   0.000434700607 -0.000249295733      0.415584613     0.883724023
12.663472            0.410138344     0.886220846   0.000435400981 -0.000250035611   0.000435400981 -0.000250035611      0.416055816     0.883478838
12.6635              0.410610664     0.885978661   0.000436102567 -0.000250777834   0.000436102567 -0.000250777833      0.416527325     0.883233149
12.663528            0.411083293     0.885735975   0.000436805366 -0.000251522408   0.000436805366 -0.000251522408       0.41699914     0.882986956
12.663556            0.411556232     0.885492786    0.00043750938 -0.000252269344    0.00043750938 -0.000252269344      0.417471262     0.882740257
12.663584             0.41202948     0.885249093   0.000438214611 -0.000253018648   0.000438214611 -0.000253018648      0.417943689     0.882493051
12.663612            0.412503039     0.885004896    0.00043892106 -0.000253770329   0.000438921061 -0.000253770329      0.418416423     0.882245338
12.66364             0.412976908     0.884760192    0.00043962873 -0.000254524396    0.00043962873 -0.000254524395      0.418889464     0.881997116
12.663668            0.413451087     0.884514982   0.000440337621 -0.000255280856   0.000440337622 -0.000255280856      0.419362812     0.881748383
12.663696            0.413925576     0.884269263   0.000441047736 -0.000256039719   0.000441047736 -0.000256039719      0.419836467      0.88149914
12.663724            0.414400377     0.884023035   0.000441759076 -0.000256800992   0.000441759077 -0.000256800992       0.42031043     0.881249384
12.663752            0.414875489     0.883776296   0.000442471643 -0.000257564685   0.000442471644 -0.000257564685      0.420784699     0.880999115
12.66378             0.415350911     0.883529046   0.000443185439 -0.000258330805   0.000443185439 -0.000258330805      0.421259277     0.880748332
12.663808            0.415826646     0.883281283   0.000443900465 -0.000259099361   0.000443900465 -0.000259099361      0.421734162     0.880497032
12.663836            0.416302691     0.883033007   0.000444616722 -0.000259870362   0.000444616722 -0.000259870362      0.422209356     0.880245216
12.663864            0.416779049     0.882784215   0.000445334214 -0.000260643817   0.000445334214 -0.000260643817      0.422684858     0.879992882
12.663892            0.417255718     0.882534908    0.00044605294 -0.000261419733    0.00044605294 -0.000261419733      0.423160668     0.879740029
12.66392               0.4177327     0.882285083   0.000446772903  -0.00026219812   0.000446772904  -0.00026219812      0.423636787     0.879486656
12.663948            0.418209994      0.88203474   0.000447494105 -0.000262978987   0.000447494105 -0.000262978987      0.424113214     0.879232762
12.663976            0.418687601     0.881783877   0.000448216548 -0.000263762341   0.000448216548 -0.000263762341      0.424589951     0.878978345
12.664004            0.419165521     0.881532494   0.000448940232 -0.000264548193   0.000448940232 -0.000264548193      0.425066997     0.878723405
12.664032            0.419643753     0.881280589   0.000449665159  -0.00026533655   0.000449665159  -0.00026533655      0.425544352     0.878467939
12.66406             0.420122299     0.881028161   0.000450391332 -0.000266127422   0.000450391332 -0.000266127421      0.426022017     0.878211948
12.664088            0.420601158     0.880775209   0.000451118752 -0.000266920817   0.000451118752 -0.000266920817      0.426499991      0.87795543
12.664116             0.42108033     0.880521731    0.00045184742 -0.000267716744    0.00045184742 -0.000267716744      0.426978275     0.877698384
12.664144            0.421559816     0.880267728   0.000452577338 -0.000268515213   0.000452577338 -0.000268515213       0.42745687     0.877440808
12.664172            0.422039617     0.880013196   0.000453308508 -0.000269316232   0.000453308508 -0.000269316231      0.427935775     0.877182702
12.6642              0.422519731     0.879758136   0.000454040932  -0.00027011981   0.000454040932  -0.00027011981       0.42841499     0.876924064
12.664228            0.423000159     0.879502546    0.00045477461 -0.000270925956    0.00045477461 -0.000270925956      0.428894516     0.876664893
12.664256            0.423480903     0.879246425   0.000455509546  -0.00027173468   0.000455509546  -0.00027173468      0.429374352     0.876405188
12.664284             0.42396196     0.878989772   0.000456245739  -0.00027254599   0.000456245739  -0.00027254599        0.4298545     0.876144948
12.664312            0.424443333     0.878732585   0.000456983193 -0.000273359896   0.000456983193 -0.000273359896      0.430334959     0.875884172
12.66434             0.424925021     0.878474863   0.000457721908 -0.000274176407   0.000457721908 -0.000274176407      0.430815729     0.875622857
12.664368            0.425407024     0.878216606   0.000458461886 -0.000274995532   0.000458461886 -0.000274995532      0.431296811     0.875361004
12.664396            0.425889343     0.877957812   0.000459203129  -0.00027581728   0.000459203129  -0.00027581728      0.431778204     0.875098612
12.664424            0.426371977     0.877698479   0.000459945638 -0.000276641661   0.000459945638 -0.000276641661       0.43225991     0.874835677
12.664452            0.426854927     0.877438608   0.000460689416 -0.000277468684   0.000460689416 -0.000277468684      0.432741927     0.874572201
12.66448             0.427338193     0.877178195   0.000461434463 -0.000278298358   0.000461434463 -0.000278298358      0.433224257     0.874308181
12.664508            0.427821775     0.876917241   0.000462180781 -0.000279130693   0.000462180781 -0.000279130693      0.433706899     0.874043616
12.664536            0.428305674     0.876655743   0.000462928372 -0.000279965699   0.000462928372 -0.000279965698      0.434189853     0.873778505
12.664564            0.428789889     0.876393702   0.000463677237 -0.000280803383   0.000463677237 -0.000280803383      0.434673121     0.873512847
12.664592            0.429274421     0.876131115   0.000464427378 -0.000281643758   0.000464427379 -0.000281643757      0.435156701     0.873246641
12.66462              0.42975927     0.875867981   0.000465178797  -0.00028248683   0.000465178797  -0.00028248683      0.435640594     0.872979885
12.664648            0.430244436       0.8756043   0.000465931495 -0.000283332612   0.000465931496 -0.000283332611      0.436124801     0.872712578
12.664676            0.430729919     0.875340069   0.000466685474 -0.000284181111   0.000466685474 -0.000284181111      0.436609321     0.872444719
12.664704             0.43121572     0.875075289   0.000467440735 -0.000285032338   0.000467440735 -0.000285032338      0.437094155     0.872176307
12.664732            0.431701839     0.874809956    0.00046819728 -0.000285886302    0.00046819728 -0.000285886302      0.437579303      0.87190734
12.66476             0.432188275     0.874544071   0.000468955111 -0.000286743014   0.000468955111 -0.000286743013      0.438064765     0.871637818
12.664788             0.43267503     0.874277632   0.000469714228 -0.000287602482   0.000469714228 -0.000287602482       0.43855054     0.871367738
12.664816            0.433162103     0.874010637   0.000470474634 -0.000288464717   0.000470474634 -0.000288464717       0.43903663       0.8710971
12.664844            0.433649494     0.873743086    0.00047123633 -0.000289329729    0.00047123633 -0.000289329728      0.439523035     0.870825903
12.664872            0.434137204     0.873474977   0.000471999317 -0.000290197527   0.000471999317 -0.000290197527      0.440009754     0.870554145
12.6649              0.434625232      0.87320631   0.000472763598 -0.000291068121   0.000472763598 -0.000291068121      0.440496788     0.870281825
12.664928             0.43511358     0.872937082   0.000473529173 -0.000291941522   0.000473529173 -0.000291941522      0.440984137     0.870008942
12.664956            0.435602246     0.872667292   0.000474296045  -0.00029281774   0.000474296045  -0.00029281774      0.441471801     0.869735494
12.664984            0.436091232      0.87239694   0.000475064214 -0.000293696784   0.000475064214 -0.000293696784      0.441959781     0.869461481
12.665012            0.436580538     0.872126023   0.000475833683 -0.000294578664   0.000475833683 -0.000294578664      0.442448076       0.8691869
12.66504             0.437070163     0.871854542   0.000476604452 -0.000295463392   0.000476604453 -0.000295463391      0.442936686     0.868911752
12.665068            0.437560108     0.871582494   0.000477376524 -0.000296350976   0.000477376524 -0.000296350976      0.443425613     0.868636033
12.665096            0.438050373     0.871309877     0.0004781499 -0.000297241427     0.0004781499 -0.000297241427      0.443914855     0.868359744
12.665124            0.438540958     0.871036692   0.000478924581 -0.000298134756   0.000478924581 -0.000298134756      0.444404413     0.868082883
12.665152            0.439031863     0.870762937   0.000479700568 -0.000299030972   0.000479700568 -0.000299030972      0.444894288     0.867805448
12.66518              0.43952309     0.870488609   0.000480477864 -0.000299930087   0.000480477864 -0.000299930086       0.44538448     0.867527439
12.665208            0.440014636     0.870213709    0.00048125647 -0.000300832109    0.00048125647 -0.000300832109      0.445874987     0.867248853
12.665236            0.440506504     0.869938234   0.000482036387 -0.000301737051   0.000482036387 -0.000301737051      0.446365812     0.866969691
12.665264            0.440998693     0.869662184   0.000482817617 -0.000302644922   0.000482817617 -0.000302644922      0.446856954      0.86668995
12.665292            0.441491203     0.869385557    0.00048360016 -0.000303555732   0.000483600161 -0.000303555732      0.447348412     0.866409629
12.66532             0.441984034     0.869108352    0.00048438402 -0.000304469493    0.00048438402 -0.000304469493      0.447840188     0.866128727
12.665348            0.442477187     0.868830567   0.000485169197 -0.000305386215   0.000485169197 -0.000305386215      0.448332282     0.865847242
12.665376            0.442970662     0.868552202   0.000485955692 -0.000306305909   0.000485955692 -0.000306305909      0.448824693     0.865565173
12.665404            0.443464458     0.868273254   0.000486743507 -0.000307228584   0.000486743507 -0.000307228584      0.449317421      0.86528252