! TOUCHSTONE file generated by CST MICROWAVE STUDIO
! Date and time: Wed Jul 31 19:49:50 2024
! Project name: WaveGuide_BPF-Ver4.1_U-shape_Ku_T3_C4_CWA_2.cst
! Parameters = {cavity_h=16; cavity_l0=10; cavity_l1=15.216; cavity_l2=16.803; cavity_l3=17.0777; cavity_l4=17.2977; cavity_l5=17.1252; cavity_l6=17.6027; cavity_r=2.5; cavity_screw_l=0.5; cavity_screw_r=1.5; cavity_w=8; iris_h00=0; iris_h01=8.7993; iris_h112=0; iris_h12=5.5926; iris_h211=3.6542; iris_h23=5.1971; iris_h310=3.974; iris_h34=5.0784; iris_h45=4.9243; iris_h49=4.619; iris_h56=4.7884; iris_h58=4.4321; iris_h67=6.5705; iris_rx=0.1; iris_screw_l=0.5; iris_screw_r=1.5; iris_shift00=0; iris_shift112=0; iris_shift211=3.5; iris_shift310=0; iris_shift49=0; iris_shift58=3.5; iris_shift67=3.5; iris_tx=4.5; iris_tz=4.5; iris_w00=0; iris_w112=0; iris_w211=4; iris_w310=3.974; iris_w49=4.619; iris_w58=4; iris_w67=4; mesh_cavity=5; mesh_iris=7; mesh_screw=7; order=12; reset_all=0; sigma=4.8e+07}
! Header version: 2018
! Port assignment regex: !\s*Touchstone port\s*([0-9]+)\s*=\s*(CST MWS port|CST DS port)\s*([0-9]+|Zmin|Zmax)\s*\(\"(.*)\"\)(\s*mode\s*([0-9]+))?.*
! Touchstone port assignment:
! Touchstone port 1 = CST MWS port 1 ("")
! Touchstone port 2 = CST MWS port 2 ("")
# GHz S RI R 50
12.66                0.297017536     0.935834962    0.00015696618 -6.11521752e-05    0.00015696618 -6.11521748e-05      0.299755622     0.935020725
12.660028            0.297400252     0.935700982   0.000157162423 -6.13066743e-05   0.000157162422 -6.13066739e-05      0.300137263     0.934885891
12.660056            0.297783142     0.935566757   0.000157358928 -6.14615496e-05   0.000157358928 -6.14615492e-05       0.30051912     0.934750797
12.660084            0.298166221     0.935432281   0.000157555698  -6.1616803e-05   0.000157555697 -6.16168026e-05      0.300901191     0.934615444
12.660112            0.298549506     0.935297548    0.00015775273 -6.17724363e-05   0.000157752729 -6.17724358e-05      0.301283473     0.934479833
12.66014             0.298933011     0.935162554   0.000157950024 -6.19284514e-05   0.000157950023 -6.19284509e-05      0.301665962     0.934343964
12.660168            0.299316738     0.935027297   0.000158147581 -6.20848492e-05    0.00015814758 -6.20848488e-05      0.302048658     0.934207837
12.660196            0.299700675     0.934891782   0.000158345402 -6.22416302e-05   0.000158345401 -6.22416298e-05      0.302431564     0.934071451
12.660224            0.300084823     0.934756006   0.000158543486 -6.23987954e-05   0.000158543485  -6.2398795e-05       0.30281468     0.933934806
12.660252            0.300469182     0.934619971   0.000158741835 -6.25563457e-05   0.000158741834 -6.25563453e-05      0.303198006       0.9337979
12.66028             0.300853752     0.934483675   0.000158940447 -6.27142821e-05   0.000158940447 -6.27142817e-05      0.303581542     0.933660734
12.660308            0.301238533     0.934347118   0.000159139325 -6.28726057e-05   0.000159139324 -6.28726052e-05      0.303965288     0.933523307
12.660336            0.301623525     0.934210299   0.000159338467 -6.30313173e-05   0.000159338467 -6.30313169e-05      0.304349245     0.933385619
12.660364            0.302008729     0.934073219   0.000159537875  -6.3190418e-05   0.000159537875 -6.31904176e-05      0.304733412     0.933247669
12.660392            0.302394144     0.933935876   0.000159737549 -6.33499089e-05   0.000159737548 -6.33499084e-05      0.305117789     0.933109456
12.66042             0.302779771     0.933798271   0.000159937488 -6.35097908e-05   0.000159937487 -6.35097904e-05      0.305502377     0.932970981
12.660448             0.30316561     0.933660402   0.000160137693 -6.36700648e-05   0.000160137692 -6.36700644e-05      0.305887177     0.932832243
12.660476             0.30355166      0.93352227   0.000160338165  -6.3830732e-05   0.000160338164 -6.38307316e-05      0.306272187     0.932693242
12.660504            0.303937923     0.933383874   0.000160538903 -6.39917933e-05   0.000160538903 -6.39917929e-05      0.306657408     0.932553976
12.660532            0.304324398     0.933245213   0.000160739909 -6.41532497e-05   0.000160739908 -6.41532493e-05       0.30704284     0.932414446
12.66056             0.304711085     0.933106287   0.000160941182 -6.43151023e-05   0.000160941181 -6.43151019e-05      0.307428483     0.932274651
12.660588            0.305097984     0.932967096   0.000161142722 -6.44773521e-05   0.000161142721 -6.44773516e-05      0.307814338     0.932134591
12.660616            0.305485096     0.932827639    0.00016134453      -6.464e-05    0.00016134453 -6.46399996e-05      0.308200405     0.931994265
12.660644             0.30587242     0.932687916   0.000161546607 -6.48030472e-05   0.000161546606 -6.48030467e-05      0.308586683     0.931853673
12.660672            0.306259957     0.932547926   0.000161748952 -6.49664946e-05   0.000161748951 -6.49664942e-05      0.308973173     0.931712814
12.6607              0.306647707     0.932407669   0.000161951566 -6.51303433e-05   0.000161951565 -6.51303429e-05      0.309359874     0.931571688
12.660728             0.30703567     0.932267144   0.000162154449 -6.52945943e-05   0.000162154448 -6.52945939e-05      0.309746788     0.931430295
12.660756            0.307423846     0.932126351   0.000162357601 -6.54592486e-05     0.0001623576 -6.54592482e-05      0.310133914     0.931288634
12.660784            0.307812235      0.93198529   0.000162561023 -6.56243073e-05   0.000162561022 -6.56243069e-05      0.310521252     0.931146704
12.660812            0.308200837      0.93184396   0.000162764715 -6.57897715e-05   0.000162764714 -6.57897711e-05      0.310908802     0.931004505
12.66084             0.308589653      0.93170236   0.000162968677 -6.59556421e-05   0.000162968676 -6.59556417e-05      0.311296565     0.930862037
12.660868            0.308978682      0.93156049    0.00016317291 -6.61219202e-05   0.000163172909 -6.61219198e-05       0.31168454       0.9307193
12.660896            0.309367925      0.93141835   0.000163377413 -6.62886069e-05   0.000163377413 -6.62886065e-05      0.312072728     0.930576292
12.660924            0.309757382      0.93127594   0.000163582188 -6.64557032e-05   0.000163582187 -6.64557028e-05      0.312461129     0.930433013
12.660952            0.310147052     0.931133258   0.000163787234 -6.66232101e-05   0.000163787233 -6.66232097e-05      0.312849743     0.930289463
12.66098             0.310536937     0.930990304   0.000163992552 -6.67911288e-05   0.000163992551 -6.67911284e-05       0.31323857     0.930145642
12.661008            0.310927035     0.930847078   0.000164198141 -6.69594603e-05   0.000164198141 -6.69594599e-05       0.31362761     0.930001549
12.661036            0.311317348      0.93070358   0.000164404004 -6.71282056e-05   0.000164404003 -6.71282052e-05      0.314016863     0.929857183
12.661064            0.311707875     0.930559808   0.000164610138 -6.72973658e-05   0.000164610137 -6.72973654e-05      0.314406329     0.929712544
12.661092            0.312098617     0.930415763   0.000164816546 -6.74669421e-05   0.000164816545 -6.74669416e-05      0.314796009     0.929567632
12.66112             0.312489573     0.930271444   0.000165023226 -6.76369353e-05   0.000165023226 -6.76369349e-05      0.315185903     0.929422445
12.661148            0.312880744     0.930126851    0.00016523018 -6.78073467e-05    0.00016523018 -6.78073463e-05       0.31557601     0.929276985
12.661176             0.31327213     0.929981982   0.000165437408 -6.79781773e-05   0.000165437407 -6.79781769e-05      0.315966331      0.92913125
12.661204             0.31366373     0.929836839    0.00016564491 -6.81494282e-05   0.000165644909 -6.81494278e-05      0.316356866     0.928985239
12.661232            0.314055546     0.929691419   0.000165852686 -6.83211005e-05   0.000165852685    -6.83211e-05      0.316747616     0.928838953
12.66126             0.314447577     0.929545723   0.000166060737 -6.84931952e-05   0.000166060736 -6.84931947e-05      0.317138579      0.92869239
12.661288            0.314839823     0.929399751   0.000166269062 -6.86657134e-05   0.000166269062  -6.8665713e-05      0.317529756     0.928545551
12.661316            0.315232284     0.929253501   0.000166477663 -6.88386564e-05   0.000166477663 -6.88386559e-05      0.317921148     0.928398435
12.661344            0.315624961     0.929106973   0.000166686539  -6.9012025e-05   0.000166686539 -6.90120245e-05      0.318312755     0.928251041
12.661372            0.316017853     0.928960168   0.000166895691 -6.91858205e-05   0.000166895691   -6.918582e-05      0.318704576      0.92810337
12.6614              0.316410962     0.928813083    0.00016710512 -6.93600439e-05   0.000167105119 -6.93600434e-05      0.319096612     0.927955419
12.661428            0.316804286      0.92866572   0.000167314824 -6.95346963e-05   0.000167314823 -6.95346959e-05      0.319488863      0.92780719
12.661456            0.317197825     0.928518077   0.000167524805 -6.97097789e-05   0.000167524804 -6.97097784e-05      0.319881328     0.927658681
12.661484            0.317591581     0.928370154   0.000167735063 -6.98852927e-05   0.000167735062 -6.98852923e-05      0.320274009     0.927509892
12.661512            0.317985554      0.92822195   0.000167945598 -7.00612389e-05   0.000167945597 -7.00612385e-05      0.320666905     0.927360823
12.66154             0.318379742     0.928073466   0.000168156411 -7.02376186e-05    0.00016815641 -7.02376182e-05      0.321060017     0.927211473
12.661568            0.318774147       0.9279247   0.000168367501 -7.04144329e-05     0.0001683675 -7.04144325e-05      0.321453343     0.927061842
12.661596            0.319168768     0.927775652   0.000168578869 -7.05916829e-05   0.000168578869 -7.05916825e-05      0.321846886     0.926911929
12.661624            0.319563606     0.927626322   0.000168790516 -7.07693698e-05   0.000168790515 -7.07693693e-05      0.322240643     0.926761734
12.661652            0.319958661     0.927476709   0.000169002441 -7.09474946e-05   0.000169002441 -7.09474942e-05      0.322634617     0.926611255
12.66168             0.320353933     0.927326812   0.000169214645 -7.11260586e-05   0.000169214645 -7.11260581e-05      0.323028807     0.926460494
12.661708            0.320749421     0.927176632   0.000169427129 -7.13050627e-05   0.000169427128 -7.13050623e-05      0.323423212     0.926309449
12.661736            0.321145127     0.927026167   0.000169639892 -7.14845083e-05   0.000169639891 -7.14845079e-05      0.323817834      0.92615812
12.661764            0.321541049     0.926875418   0.000169852934 -7.16643964e-05   0.000169852934 -7.16643959e-05      0.324212671     0.926006506
12.661792            0.321937189     0.926724383   0.000170066257 -7.18447281e-05   0.000170066256 -7.18447277e-05      0.324607726     0.925854607
12.66182             0.322333547     0.926573062    0.00017027986 -7.20255047e-05   0.000170279859 -7.20255042e-05      0.325002996     0.925702422
12.661848            0.322730122     0.926421456   0.000170493744 -7.22067272e-05   0.000170493743 -7.22067267e-05      0.325398483     0.925549951
12.661876            0.323126915     0.926269562   0.000170707908 -7.23883968e-05   0.000170707907 -7.23883964e-05      0.325794187     0.925397193
12.661904            0.323523925     0.926117381   0.000170922354 -7.25705147e-05   0.000170922353 -7.25705143e-05      0.326190107     0.925244149
12.661932            0.323921153     0.925964913   0.000171137081  -7.2753082e-05    0.00017113708 -7.27530816e-05      0.326586245     0.925090817
12.66196             0.324318599     0.925812156    0.00017135209 -7.29360999e-05   0.000171352089 -7.29360995e-05      0.326982599     0.924937196
12.661988            0.324716264     0.925659111   0.000171567381 -7.31195696e-05    0.00017156738 -7.31195691e-05      0.327379171     0.924783288
12.662016            0.325114146     0.925505777   0.000171782954 -7.33034921e-05   0.000171782953 -7.33034917e-05      0.327775959      0.92462909
12.662044            0.325512247     0.925352152   0.000171998809 -7.34878688e-05   0.000171998809 -7.34878683e-05      0.328172965     0.924474603
12.662072            0.325910566     0.925198238   0.000172214948 -7.36727007e-05   0.000172214947 -7.36727003e-05      0.328570189     0.924319825
12.6621              0.326309104     0.925044033    0.00017243137 -7.38579891e-05   0.000172431369 -7.38579886e-05      0.328967629     0.924164757
12.662128             0.32670786     0.924889537   0.000172648075 -7.40437351e-05   0.000172648074 -7.40437346e-05      0.329365288     0.924009399
12.662156            0.327106835      0.92473475   0.000172865064 -7.42299399e-05   0.000172865063 -7.42299394e-05      0.329763164     0.923853748
12.662184            0.327506029      0.92457967   0.000173082336 -7.44166047e-05   0.000173082336 -7.44166042e-05      0.330161258     0.923697806
12.662212            0.327905442     0.924424298   0.000173299893 -7.46037306e-05   0.000173299893 -7.46037302e-05      0.330559571     0.923541571
12.66224             0.328305074     0.924268632   0.000173517735  -7.4791319e-05   0.000173517734 -7.47913185e-05      0.330958101     0.923385044
12.662268            0.328704925     0.924112673   0.000173735861 -7.49793709e-05   0.000173735861 -7.49793704e-05      0.331356849     0.923228222
12.662296            0.329104995      0.92395642   0.000173954273 -7.51678876e-05   0.000173954272 -7.51678871e-05      0.331755816     0.923071107
12.662324            0.329505285     0.923799872    0.00017417297 -7.53568703e-05   0.000174172969 -7.53568698e-05      0.332155001     0.922913698
12.662352            0.329905794     0.923643029   0.000174391952 -7.55463201e-05   0.000174391951 -7.55463197e-05      0.332554405     0.922755993
12.66238             0.330306523     0.923485891    0.00017461122 -7.57362384e-05    0.00017461122 -7.57362379e-05      0.332954027     0.922597993
12.662408            0.330707472     0.923328456   0.000174830775 -7.59266263e-05   0.000174830774 -7.59266258e-05      0.333353868     0.922439697
12.662436            0.331108641     0.923170725   0.000175050616 -7.61174849e-05   0.000175050615 -7.61174845e-05      0.333753928     0.922281105
12.662464            0.331510029     0.923012697   0.000175270744 -7.63088156e-05   0.000175270743 -7.63088152e-05      0.334154206     0.922122215
12.662492            0.331911637     0.922854371   0.000175491158 -7.65006196e-05   0.000175491158 -7.65006192e-05      0.334554704     0.921963028
12.66252             0.332313466     0.922695747    0.00017571186 -7.66928981e-05    0.00017571186 -7.66928976e-05      0.334955421     0.921803544
12.662548            0.332715515     0.922536825    0.00017593285 -7.68856523e-05   0.000175932849 -7.68856518e-05      0.335356357      0.92164376
12.662576            0.333117784     0.922377603   0.000176154127 -7.70788834e-05   0.000176154127  -7.7078883e-05      0.335757513     0.921483678
12.662604            0.333520274     0.922218082   0.000176375693 -7.72725928e-05   0.000176375692 -7.72725923e-05      0.336158888     0.921323296
12.662632            0.333922984      0.92205826   0.000176597547 -7.74667815e-05   0.000176597546 -7.74667811e-05      0.336560483     0.921162614
12.66266             0.334325915     0.921898138   0.000176819689  -7.7661451e-05   0.000176819689 -7.76614505e-05      0.336962297     0.921001632
12.662688            0.334729067     0.921737715   0.000177042121 -7.78566023e-05    0.00017704212 -7.78566018e-05      0.337364331     0.920840349
12.662716             0.33513244      0.92157699   0.000177264842 -7.80522368e-05   0.000177264841 -7.80522363e-05      0.337766585     0.920678764
12.662744            0.335536034     0.921415962   0.000177487852 -7.82483557e-05   0.000177487851 -7.82483552e-05       0.33816906     0.920516877
12.662772            0.335939849     0.921254632   0.000177711152 -7.84449603e-05   0.000177711151 -7.84449598e-05      0.338571754     0.920354687
12.6628              0.336343885     0.921092999   0.000177934741 -7.86420518e-05   0.000177934741 -7.86420514e-05      0.338974668     0.920192195
12.662828            0.336748142     0.920931062   0.000178158622 -7.88396316e-05   0.000178158621 -7.88396311e-05      0.339377803     0.920029399
12.662856            0.337152621     0.920768821   0.000178382792 -7.90377007e-05   0.000178382792 -7.90377003e-05      0.339781158     0.919866298
12.662884            0.337557322     0.920606275   0.000178607254 -7.92362607e-05   0.000178607253 -7.92362602e-05      0.340184734     0.919702894
12.662912            0.337962244     0.920443424   0.000178832006 -7.94353126e-05   0.000178832006 -7.94353121e-05       0.34058853     0.919539184
12.66294             0.338367388     0.920280267    0.00017905705 -7.96348578e-05   0.000179057049 -7.96348573e-05      0.340992547     0.919375168
12.662968            0.338772753     0.920116804   0.000179282385 -7.98348975e-05   0.000179282385  -7.9834897e-05      0.341396785     0.919210846
12.662996            0.339178341     0.919953033   0.000179508013 -8.00354331e-05   0.000179508012 -8.00354326e-05      0.341801244     0.919046217
12.663024            0.339584151     0.919788956   0.000179733932 -8.02364658e-05   0.000179733932 -8.02364653e-05      0.342205924     0.918881282
12.663052            0.339990183      0.91962457   0.000179960144  -8.0437997e-05   0.000179960144 -8.04379965e-05      0.342610826     0.918716038
12.66308             0.340396437     0.919459876   0.000180186649 -8.06400278e-05   0.000180186648 -8.06400273e-05      0.343015948     0.918550486
12.663108            0.340802913     0.919294873   0.000180413446 -8.08425597e-05   0.000180413446 -8.08425592e-05      0.343421292     0.918384626
12.663136            0.341209612     0.919129561   0.000180640537 -8.10455938e-05   0.000180640536 -8.10455933e-05      0.343826857     0.918218456
12.663164            0.341616534     0.918963938   0.000180867921 -8.12491316e-05    0.00018086792 -8.12491311e-05      0.344232644     0.918051976
12.663192            0.342023678     0.918798006   0.000181095599 -8.14531743e-05   0.000181095598 -8.14531738e-05      0.344638652     0.917885186
12.66322             0.342431045     0.918631761   0.000181323571 -8.16577233e-05    0.00018132357 -8.16577228e-05      0.345044883     0.917718085
12.663248            0.342838636     0.918465206   0.000181551837 -8.18627797e-05   0.000181551836 -8.18627792e-05      0.345451335     0.917550672
12.663276            0.343246449     0.918298338   0.000181780397 -8.20683451e-05   0.000181780397 -8.20683446e-05      0.345858009     0.917382948
12.663304            0.343654485     0.918131158   0.000182009252 -8.22744206e-05   0.000182009252 -8.22744201e-05      0.346264905     0.917214911
12.663332            0.344062744     0.917963664   0.000182238403 -8.24810077e-05   0.000182238402 -8.24810072e-05      0.346672024     0.917046561
12.66336             0.344471227     0.917795856   0.000182467848 -8.26881075e-05   0.000182467848 -8.26881071e-05      0.347079365     0.916877897
12.663388            0.344879933     0.917627735   0.000182697589 -8.28957216e-05   0.000182697589 -8.28957211e-05      0.347486928     0.916708919
12.663416            0.345288862     0.917459298   0.000182927626 -8.31038512e-05   0.000182927626 -8.31038507e-05      0.347894713     0.916539627
12.663444            0.345698015     0.917290546   0.000183157959 -8.33124976e-05   0.000183157959 -8.33124971e-05      0.348302722     0.916370019
12.663472            0.346107392     0.917121479   0.000183388589 -8.35216622e-05   0.000183388588 -8.35216617e-05      0.348710953     0.916200096
12.6635              0.346516993     0.916952094   0.000183619514 -8.37313463e-05   0.000183619514 -8.37313458e-05      0.349119406     0.916029857
12.663528            0.346926818     0.916782393   0.000183850737 -8.39415514e-05   0.000183850736 -8.39415509e-05      0.349528083       0.9158593
12.663556            0.347336866     0.916612375   0.000184082257 -8.41522786e-05   0.000184082256 -8.41522781e-05      0.349936982     0.915688427
12.663584            0.347747139     0.916442038   0.000184314074 -8.43635295e-05   0.000184314073  -8.4363529e-05      0.350346105     0.915517235
12.663612            0.348157636     0.916271383   0.000184546188 -8.45753053e-05   0.000184546188 -8.45753048e-05      0.350755451     0.915345725
12.66364             0.348568357     0.916100408   0.000184778601 -8.47876075e-05     0.0001847786  -8.4787607e-05       0.35116502     0.915173896
12.663668            0.348979303     0.915929114   0.000185011311 -8.50004373e-05    0.00018501131 -8.50004368e-05      0.351574813     0.915001748
12.663696            0.349390473     0.915757499    0.00018524432 -8.52137963e-05   0.000185244319 -8.52137958e-05      0.351984829     0.914829279
12.663724            0.349801868     0.915585564   0.000185477627 -8.54276856e-05   0.000185477627 -8.54276851e-05      0.352395069      0.91465649
12.663752            0.350213487     0.915413307   0.000185711233 -8.56421068e-05   0.000185711233 -8.56421063e-05      0.352805532     0.914483379
12.66378             0.350625332     0.915240729   0.000185945139 -8.58570612e-05   0.000185945138 -8.58570607e-05      0.353216219     0.914309947
12.663808            0.351037401     0.915067828   0.000186179343 -8.60725502e-05   0.000186179343 -8.60725497e-05       0.35362713     0.914136193
12.663836            0.351449695     0.914894604   0.000186413847 -8.62885751e-05   0.000186413847 -8.62885746e-05      0.354038265     0.913962116
12.663864            0.351862215     0.914721057   0.000186648651 -8.65051375e-05   0.000186648651 -8.65051369e-05      0.354449624     0.913787715
12.663892            0.352274959     0.914547185   0.000186883755 -8.67222386e-05   0.000186883755 -8.67222381e-05      0.354861207     0.913612991
12.66392             0.352687929     0.914372989    0.00018711916 -8.69398799e-05   0.000187119159 -8.69398793e-05      0.355273015     0.913437942
12.663948            0.353101124     0.914198467   0.000187354865 -8.71580627e-05   0.000187354864 -8.71580622e-05      0.355685047     0.913262568
12.663976            0.353514545      0.91402362    0.00018759087 -8.73767886e-05    0.00018759087 -8.73767881e-05      0.356097303     0.913086868
12.664004            0.353928191     0.913848446   0.000187827177 -8.75960589e-05   0.000187827176 -8.75960583e-05      0.356509784     0.912910842
12.664032            0.354342063     0.913672946   0.000188063785 -8.78158749e-05   0.000188063784 -8.78158744e-05       0.35692249      0.91273449
12.66406             0.354756161     0.913497118   0.000188300694 -8.80362383e-05   0.000188300694 -8.80362378e-05       0.35733542      0.91255781
12.664088            0.355170485     0.913320962   0.000188537906 -8.82571503e-05   0.000188537905 -8.82571498e-05      0.357748575     0.912380803
12.664116            0.355585035     0.913144477   0.000188775419 -8.84786124e-05   0.000188775418 -8.84786119e-05      0.358161955     0.912203466
12.664144             0.35599981     0.912967663   0.000189013234  -8.8700626e-05   0.000189013234 -8.87006255e-05       0.35857556     0.912025802
12.664172            0.356414812      0.91279052   0.000189251352 -8.89231926e-05   0.000189251352 -8.89231921e-05      0.358989391     0.911847807
12.6642               0.35683004     0.912613046   0.000189489773 -8.91463136e-05   0.000189489772 -8.91463131e-05      0.359403446     0.911669482
12.664228            0.357245495     0.912435241   0.000189728497 -8.93699904e-05   0.000189728496 -8.93699899e-05      0.359817727     0.911490827
12.664256            0.357661176     0.912257105   0.000189967524 -8.95942246e-05   0.000189967523 -8.95942241e-05      0.360232233     0.911311841
12.664284            0.358077083     0.912078637   0.000190206854 -8.98190175e-05   0.000190206853 -8.98190169e-05      0.360646965     0.911132522
12.664312            0.358493217     0.911899836   0.000190446488 -9.00443705e-05   0.000190446487   -9.004437e-05      0.361061922     0.910952872
12.66434             0.358909578     0.911720702   0.000190686426 -9.02702853e-05   0.000190686425 -9.02702848e-05      0.361477105     0.910772888
12.664368            0.359326166     0.911541235   0.000190926668 -9.04967632e-05   0.000190926667 -9.04967627e-05      0.361892514     0.910592571
12.664396             0.35974298     0.911361433   0.000191167214 -9.07238057e-05   0.000191167213 -9.07238051e-05      0.362308149     0.910411919
12.664424            0.360160022     0.911181296   0.000191408065 -9.09514142e-05   0.000191408064 -9.09514137e-05      0.362724009     0.910230933
12.664452            0.360577291     0.911000824    0.00019164922 -9.11795903e-05    0.00019164922 -9.11795898e-05      0.363140096     0.910049612
12.66448             0.360994787     0.910820016   0.000191890681 -9.14083354e-05    0.00019189068 -9.14083348e-05      0.363556409     0.909867955
12.664508             0.36141251     0.910638871   0.000192132447  -9.1637651e-05   0.000192132446 -9.16376504e-05      0.363972948     0.909685962
12.664536             0.36183046     0.910457389   0.000192374519 -9.18675386e-05   0.000192374518  -9.1867538e-05      0.364389713     0.909503631
12.664564            0.362248638     0.910275569   0.000192616896 -9.20979996e-05   0.000192616895 -9.20979991e-05      0.364806705     0.909320963
12.664592            0.362667044     0.910093411   0.000192859579 -9.23290357e-05   0.000192859578 -9.23290351e-05      0.365223924     0.909137957
12.66462             0.363085677     0.909910914   0.000193102568 -9.25606482e-05   0.000193102568 -9.25606476e-05      0.365641369     0.908954613
12.664648            0.363504538     0.909728078   0.000193345864 -9.27928387e-05   0.000193345863 -9.27928381e-05       0.36605904     0.908770928
12.664676            0.363923627     0.909544901   0.000193589467 -9.30256086e-05   0.000193589466 -9.30256081e-05      0.366476939     0.908586904
12.664704            0.364342944     0.909361384   0.000193833376 -9.32589596e-05   0.000193833375 -9.32589591e-05      0.366895064      0.90840254
12.664732            0.364762489     0.909177525   0.000194077592 -9.34928931e-05   0.000194077591 -9.34928926e-05      0.367313416     0.908217834
12.66476             0.365182261     0.908993325   0.000194322116 -9.37274106e-05   0.000194322115 -9.37274101e-05      0.367731996     0.908032787
12.664788            0.365602262     0.908808782   0.000194566947 -9.39625137e-05   0.000194566946 -9.39625131e-05      0.368150802     0.907847397
12.664816            0.366022492     0.908623896   0.000194812086 -9.41982038e-05   0.000194812085 -9.41982033e-05      0.368569836     0.907661665
12.664844            0.366442949     0.908438666   0.000195057532 -9.44344825e-05   0.000195057532  -9.4434482e-05      0.368989097     0.907475589
12.664872            0.366863635     0.908253092   0.000195303287 -9.46713514e-05   0.000195303287 -9.46713509e-05      0.369408586     0.907289169
12.6649               0.36728455     0.908067173    0.00019554935  -9.4908812e-05    0.00019554935 -9.49088115e-05      0.369828302     0.907102405
12.664928            0.367705693     0.907880909   0.000195795722 -9.51468658e-05   0.000195795722 -9.51468653e-05      0.370248245     0.906915295
12.664956            0.368127065     0.907694299   0.000196042403 -9.53855144e-05   0.000196042402 -9.53855139e-05      0.370668416      0.90672784
12.664984            0.368548666     0.907507342   0.000196289393 -9.56247593e-05   0.000196289392 -9.56247588e-05      0.371088815     0.906540038
12.665012            0.368970496     0.907320038   0.000196536692 -9.58646021e-05   0.000196536691 -9.58646016e-05      0.371509442     0.906351889
12.66504             0.369392555     0.907132386     0.0001967843 -9.61050444e-05   0.000196784299 -9.61050439e-05      0.371930297     0.906163392
12.665068            0.369814842     0.906944386   0.000197032218 -9.63460876e-05   0.000197032217 -9.63460871e-05      0.372351379     0.905974548
12.665096            0.370237359     0.906756037   0.000197280446 -9.65877335e-05   0.000197280445 -9.65877329e-05       0.37277269     0.905785354
12.665124            0.370660105     0.906567338   0.000197528984 -9.68299835e-05   0.000197528983 -9.68299829e-05      0.373194229     0.905595811
12.665152            0.371083081     0.906378288   0.000197777832 -9.70728392e-05   0.000197777831 -9.70728386e-05      0.373615996     0.905405918
12.66518             0.371506286     0.906188888    0.00019802699 -9.73163022e-05    0.00019802699 -9.73163017e-05      0.374037992     0.905215675
12.665208             0.37192972     0.905999137    0.00019827646 -9.75603741e-05   0.000198276459 -9.75603736e-05      0.374460216      0.90502508
12.665236            0.372353384     0.905809033    0.00019852624 -9.78050565e-05   0.000198526239  -9.7805056e-05      0.374882669     0.904834133
12.665264            0.372777277     0.905618577   0.000198776331  -9.8050351e-05    0.00019877633 -9.80503505e-05       0.37530535     0.904642834
12.665292              0.3732014     0.905427767   0.000199026734 -9.82962592e-05   0.000199026733 -9.82962586e-05      0.375728259     0.904451182
12.66532             0.373625754     0.905236604   0.000199277447 -9.85427826e-05   0.000199277447 -9.85427821e-05      0.376151398     0.904259176
12.665348            0.374050337     0.905045086   0.000199528473  -9.8789923e-05   0.000199528472 -9.87899224e-05      0.376574765     0.904066816
12.665376             0.37447515     0.904853213   0.000199779811 -9.90376818e-05    0.00019977981 -9.90376812e-05      0.376998362       0.9038741
12.665404            0.374900193     0.904660984    0.00020003146 -9.92860607e-05    0.00020003146 -9.92860602e-05      0.377422187      0.90368103