! TOUCHSTONE file generated by CST MICROWAVE STUDIO
! Date and time: Wed Jul 31 20:05:39 2024
! Project name: WaveGuide_BPF-Ver4.1_U-shape_Ku_T3_C4_CWA_2.cst
! Parameters = {cavity_h=16; cavity_l0=10; cavity_l1=15.217; cavity_l2=16.8602; cavity_l3=17.1412; cavity_l4=17.2672; cavity_l5=17.1155; cavity_l6=17.5885; cavity_r=2.5; cavity_screw_l=0.5; cavity_screw_r=1.5; cavity_w=8; iris_h00=0; iris_h01=8.7983; iris_h112=0; iris_h12=5.5902; iris_h211=3.654; iris_h23=5.2007; iris_h310=3.968; iris_h34=5.0822; iris_h45=4.9324; iris_h49=4.6207; iris_h56=4.7896; iris_h58=4.4444; iris_h67=6.5698; iris_rx=0.1; iris_screw_l=0.5; iris_screw_r=1.5; iris_shift00=0; iris_shift112=0; iris_shift211=3.5; iris_shift310=0; iris_shift49=0; iris_shift58=3.5; iris_shift67=3.5; iris_tx=4.5; iris_tz=4.5; iris_w00=0; iris_w112=0; iris_w211=4; iris_w310=3.968; iris_w49=4.6207; iris_w58=4; iris_w67=4; mesh_cavity=5; mesh_iris=7; mesh_screw=7; order=12; reset_all=0; sigma=4.8e+07}
! Header version: 2018
! Port assignment regex: !\s*Touchstone port\s*([0-9]+)\s*=\s*(CST MWS port|CST DS port)\s*([0-9]+|Zmin|Zmax)\s*\(\"(.*)\"\)(\s*mode\s*([0-9]+))?.*
! Touchstone port assignment:
! Touchstone port 1 = CST MWS port 1 ("")
! Touchstone port 2 = CST MWS port 2 ("")
# GHz S RI R 50
12.66                 0.31144511     0.929748218   0.000254930413 -0.000106224004   0.000254930413 -0.000106224004        0.3107577     0.930172981
12.660028            0.311854045     0.929595641   0.000255299266 -0.000106518176   0.000255299266 -0.000106518176      0.311162436     0.930022419
12.660056            0.312263118     0.929442789   0.000255668717 -0.000106813152   0.000255668717 -0.000106813152      0.311567416     0.929871554
12.660084            0.312672379     0.929289645    0.00025603876  -0.00010710894   0.000256038761  -0.00010710894      0.311972645     0.929720381
12.660112            0.313081881     0.929136192   0.000256409392 -0.000107405549   0.000256409392 -0.000107405549      0.312378127     0.929568901
12.66014             0.313491674     0.928982413   0.000256780607 -0.000107702988   0.000256780607 -0.000107702988      0.312783865      0.92941711
12.660168             0.31390176     0.928828306   0.000257152406 -0.000108001259   0.000257152406 -0.000108001259      0.313189861     0.929265009
12.660196            0.314312103     0.928673883   0.000257524794 -0.000108300361   0.000257524794 -0.000108300361      0.313596111     0.929112598
12.660224            0.314722706     0.928519142   0.000257897771 -0.000108600296   0.000257897771 -0.000108600296      0.314002616     0.928959875
12.660252            0.315133566     0.928364084   0.000258271338 -0.000108901067   0.000258271338 -0.000108901067      0.314409376     0.928806841
12.66028             0.315544685     0.928208707   0.000258645497 -0.000109202675   0.000258645497 -0.000109202675      0.314816392     0.928653494
12.660308            0.315956064     0.928053011   0.000259020248 -0.000109505124   0.000259020248 -0.000109505124      0.315223663     0.928499835
12.660336            0.316367701     0.927896996   0.000259395591 -0.000109808416   0.000259395591 -0.000109808416      0.315631189     0.928345862
12.660364            0.316779598      0.92774066   0.000259771529 -0.000110112553   0.000259771529 -0.000110112553      0.316038972     0.928191575
12.660392            0.317191754     0.927584003    0.00026014806 -0.000110417539   0.000260148061 -0.000110417539       0.31644701     0.928036974
12.66042              0.31760417     0.927427024   0.000260525188 -0.000110723375   0.000260525188 -0.000110723374      0.316855305     0.927882057
12.660448            0.318016846     0.927269724   0.000260902911 -0.000111030064   0.000260902911 -0.000111030064      0.317263857     0.927726824
12.660476            0.318429782       0.9271121   0.000261281232 -0.000111337608   0.000261281232 -0.000111337608      0.317672665     0.927571275
12.660504            0.318842979     0.926954153    0.00026166015 -0.000111646011    0.00026166015 -0.000111646011       0.31808173     0.927415409
12.660532            0.319256436     0.926795882   0.000262039667 -0.000111955275   0.000262039667 -0.000111955275      0.318491052     0.927259225
12.66056             0.319670154     0.926637286   0.000262419784 -0.000112265401   0.000262419784 -0.000112265401      0.318900631     0.927102722
12.660588            0.320084133     0.926478364   0.000262800501 -0.000112576394   0.000262800501 -0.000112576394      0.319310468     0.926945901
12.660616            0.320498373     0.926319117   0.000263181819 -0.000112888255    0.00026318182 -0.000112888255      0.319720563      0.92678876
12.660644            0.320912874     0.926159543    0.00026356374 -0.000113200988    0.00026356374 -0.000113200987      0.320130916     0.926631299
12.660672            0.321327638     0.925999642   0.000263946263 -0.000113514593   0.000263946264 -0.000113514593      0.320541527     0.926473517
12.6607              0.321742663     0.925839412   0.000264329391 -0.000113829075   0.000264329391 -0.000113829075      0.320952396     0.926315413
12.660728             0.32215795     0.925678854   0.000264713122 -0.000114144436   0.000264713123 -0.000114144436      0.321363524     0.926156988
12.660756              0.3225735     0.925517967    0.00026509746 -0.000114460679    0.00026509746 -0.000114460679      0.321774911     0.925998239
12.660784            0.322989311      0.92535675   0.000265482403 -0.000114777805   0.000265482403 -0.000114777805      0.322186556     0.925839167
12.660812            0.323405386     0.925195203   0.000265867954 -0.000115095819   0.000265867954 -0.000115095818      0.322598461     0.925679772
12.66084             0.323821724     0.925033324   0.000266254112 -0.000115414721   0.000266254113 -0.000115414721      0.323010626     0.925520051
12.660868            0.324238324     0.924871113    0.00026664088 -0.000115734516    0.00026664088 -0.000115734516      0.323423049     0.925360006
12.660896            0.324655188      0.92470857   0.000267028257 -0.000116055205   0.000267028257 -0.000116055205      0.323835733     0.925199634
12.660924            0.325072315     0.924545694   0.000267416244 -0.000116376792   0.000267416245 -0.000116376792      0.324248677     0.925038936
12.660952            0.325489707     0.924382484   0.000267804843 -0.000116699279   0.000267804843 -0.000116699279      0.324661881      0.92487791
12.66098             0.325907362      0.92421894   0.000268194054 -0.000117022669   0.000268194054 -0.000117022669      0.325075345     0.924716557
12.661008            0.326325281      0.92405506   0.000268583878 -0.000117346964   0.000268583878 -0.000117346964      0.325489071     0.924554876
12.661036            0.326743465     0.923890845   0.000268974316 -0.000117672168   0.000268974316 -0.000117672167      0.325903057     0.924392865
12.661064            0.327161913     0.923726293   0.000269365368 -0.000117998282   0.000269365369 -0.000117998282      0.326317304     0.924230524
12.661092            0.327580626     0.923561404   0.000269757036  -0.00011832531   0.000269757036  -0.00011832531      0.326731812     0.924067853
12.66112             0.327999604     0.923396177   0.000270149321 -0.000118653254   0.000270149321 -0.000118653254      0.327146582     0.923904851
12.661148            0.328418847     0.923230612   0.000270542222 -0.000118982117   0.000270542222 -0.000118982117      0.327561613     0.923741518
12.661176            0.328838355     0.923064708   0.000270935741 -0.000119311903   0.000270935742 -0.000119311903      0.327976907     0.923577851
12.661204            0.329258129     0.922898464    0.00027132988 -0.000119642612    0.00027132988 -0.000119642612      0.328392463     0.923413852
12.661232            0.329678169     0.922731879   0.000271724638  -0.00011997425   0.000271724638  -0.00011997425      0.328808281     0.923249519
12.66126             0.330098475     0.922564954   0.000272120016 -0.000120306817   0.000272120016 -0.000120306817      0.329224361     0.923084852
12.661288            0.330519047     0.922397686   0.000272516016 -0.000120640317   0.000272516016 -0.000120640317      0.329640704      0.92291985
12.661316            0.330939886     0.922230076   0.000272912638 -0.000120974753   0.000272912638 -0.000120974753       0.33005731     0.922754512
12.661344            0.331360991     0.922062123   0.000273309883 -0.000121310128   0.000273309883 -0.000121310128       0.33047418     0.922588838
12.661372            0.331782363     0.921893826   0.000273707751 -0.000121646444   0.000273707752 -0.000121646444      0.330891312     0.922422827
12.6614              0.332204003     0.921725185   0.000274106245 -0.000121983704   0.000274106245 -0.000121983704      0.331308709     0.922256478
12.661428            0.332625909     0.921556198   0.000274505364 -0.000122321911   0.000274505364 -0.000122321911      0.331726369     0.922089791
12.661456            0.333048083     0.921386866   0.000274905109 -0.000122661068   0.000274905109 -0.000122661068      0.332144293     0.921922765
12.661484            0.333470525     0.921217187   0.000275305482 -0.000123001178   0.000275305482 -0.000123001177      0.332562481     0.921755399
12.661512            0.333893234      0.92104716   0.000275706482 -0.000123342243   0.000275706482 -0.000123342243      0.332980934     0.921587693
12.66154             0.334316212     0.920876786   0.000276108111 -0.000123684266   0.000276108111 -0.000123684266      0.333399651     0.921419646
12.661568            0.334739458     0.920706063    0.00027651037 -0.000124027251    0.00027651037 -0.000124027251      0.333818633     0.921251258
12.661596            0.335162973     0.920534991    0.00027691326   -0.0001243712    0.00027691326   -0.0001243712       0.33423788     0.921082527
12.661624            0.335586756     0.920363569    0.00027731678 -0.000124716117   0.000277316781 -0.000124716116      0.334657393     0.920913452
12.661652            0.336010808     0.920191795   0.000277720933 -0.000125062003   0.000277720934 -0.000125062003      0.335077171     0.920744035
12.66168              0.33643513     0.920019671   0.000278125719 -0.000125408862   0.000278125719 -0.000125408862      0.335497214     0.920574272
12.661708            0.336859721     0.919847194   0.000278531139 -0.000125756697   0.000278531139 -0.000125756696      0.335917523     0.920404165
12.661736            0.337284581     0.919674365   0.000278937193  -0.00012610551   0.000278937194  -0.00012610551      0.336338099     0.920233712
12.661764            0.337709711     0.919501182   0.000279343883 -0.000126455305   0.000279343883 -0.000126455305      0.336758941     0.920062912
12.661792            0.338135111     0.919327645   0.000279751209 -0.000126806085   0.000279751209 -0.000126806085      0.337180049     0.919891766
12.66182             0.338560782     0.919153752   0.000280159172 -0.000127157853   0.000280159173 -0.000127157853      0.337601424     0.919720271
12.661848            0.338986723     0.918979504   0.000280567774 -0.000127510611   0.000280567774 -0.000127510611      0.338023066     0.919548428
12.661876            0.339412934       0.9188049   0.000280977014 -0.000127864362   0.000280977014 -0.000127864362      0.338444975     0.919376236
12.661904            0.339839416     0.918629939   0.000281386893  -0.00012821911   0.000281386893  -0.00012821911      0.338867151     0.919203694
12.661932             0.34026617      0.91845462   0.000281797413 -0.000128574858   0.000281797413 -0.000128574858      0.339289595     0.919030801
12.66196             0.340693194     0.918278942   0.000282208574 -0.000128931608   0.000282208574 -0.000128931608      0.339712307     0.918857557
12.661988            0.341120491     0.918102905   0.000282620377 -0.000129289364   0.000282620378 -0.000129289364      0.340135287     0.918683961
12.662016            0.341548058     0.917926508   0.000283032824 -0.000129648128   0.000283032824 -0.000129648128      0.340558534     0.918510012
12.662044            0.341975898      0.91774975   0.000283445913 -0.000130007904   0.000283445914 -0.000130007904      0.340982051      0.91833571
12.662072             0.34240401     0.917572631   0.000283859648 -0.000130368695   0.000283859648 -0.000130368695      0.341405835     0.918161053
12.6621              0.342832394      0.91739515   0.000284274027 -0.000130730503   0.000284274027 -0.000130730503      0.341829889     0.917986042
12.662128             0.34326105     0.917217306   0.000284689053 -0.000131093332   0.000284689053 -0.000131093332      0.342254212     0.917810676
12.662156             0.34368998     0.917039099   0.000285104726 -0.000131457185   0.000285104726 -0.000131457185      0.342678803     0.917634953
12.662184            0.344119182     0.916860527   0.000285521047 -0.000131822065   0.000285521047 -0.000131822064      0.343103665     0.917458873
12.662212            0.344548657      0.91668159   0.000285938016 -0.000132187974   0.000285938016 -0.000132187974      0.343528796     0.917282435
12.66224             0.344978406     0.916502287   0.000286355634 -0.000132554917   0.000286355635 -0.000132554917      0.343954196     0.917105639
12.662268            0.345408428     0.916322618   0.000286773903 -0.000132922896   0.000286773903 -0.000132922896      0.344379867     0.916928484
12.662296            0.345838724     0.916142582   0.000287192823 -0.000133291915   0.000287192823 -0.000133291915      0.344805808     0.916750969
12.662324            0.346269294     0.915962177   0.000287612395 -0.000133661976   0.000287612395 -0.000133661976       0.34523202     0.916573094
12.662352            0.346700138     0.915781404   0.000288032619 -0.000134033083    0.00028803262 -0.000134033083      0.345658502     0.916394857
12.66238             0.347131257     0.915600262   0.000288453497 -0.000134405238   0.000288453498 -0.000134405238      0.346085255     0.916216259
12.662408             0.34756265     0.915418749    0.00028887503 -0.000134778446    0.00028887503 -0.000134778445      0.346512279     0.916037297
12.662436            0.347994318     0.915236865   0.000289297217 -0.000135152708   0.000289297217 -0.000135152708      0.346939574     0.915857972
12.662464            0.348426261     0.915054609    0.00028972006 -0.000135528029   0.000289720061 -0.000135528029      0.347367141     0.915678283
12.662492             0.34885848     0.914871981    0.00029014356 -0.000135904411   0.000290143561 -0.000135904411       0.34779498     0.915498229
12.66252             0.349290973      0.91468898   0.000290567718 -0.000136281858   0.000290567718 -0.000136281858      0.348223091      0.91531781
12.662548            0.349723743     0.914505605   0.000290992534 -0.000136660373   0.000290992534 -0.000136660373      0.348651474     0.915137024
12.662576            0.350156788     0.914321855   0.000291418009 -0.000137039959   0.000291418009 -0.000137039959      0.349080129      0.91495587
12.662604            0.350590109     0.914137729   0.000291844144  -0.00013742062   0.000291844144  -0.00013742062      0.349509056     0.914774349
12.662632            0.351023707     0.913953228    0.00029227094 -0.000137802358    0.00029227094 -0.000137802358      0.349938257      0.91459246
12.66266             0.351457581     0.913768349   0.000292698397 -0.000138185177   0.000292698397 -0.000138185177       0.35036773     0.914410201
12.662688            0.351891732     0.913583092   0.000293126517  -0.00013856908   0.000293126517  -0.00013856908      0.350797477     0.914227572
12.662716            0.352326159     0.913397457     0.0002935553 -0.000138954071     0.0002935553 -0.000138954071      0.351227497     0.914044572
12.662744            0.352760864     0.913211443   0.000293984747 -0.000139340152   0.000293984747 -0.000139340152      0.351657791     0.913861201
12.662772            0.353195846     0.913025049   0.000294414858 -0.000139727327   0.000294414858 -0.000139727327      0.352088358     0.913677457
12.6628              0.353631106     0.912838273   0.000294845635   -0.0001401156   0.000294845635   -0.0001401156      0.352519199      0.91349334
12.662828            0.354066643     0.912651117   0.000295277079 -0.000140504973   0.000295277079 -0.000140504973      0.352950315     0.913308849
12.662856            0.354502458     0.912463577   0.000295709189  -0.00014089545   0.000295709189  -0.00014089545      0.353381705     0.913123984
12.662884            0.354938552     0.912275655   0.000296141968 -0.000141287035   0.000296141968 -0.000141287034       0.35381337     0.912938743
12.662912            0.355374924     0.912087348   0.000296575415  -0.00014167973   0.000296575415 -0.000141679729       0.35424531     0.912753127
12.66294             0.355811574     0.911898657   0.000297009532 -0.000142073539   0.000297009532 -0.000142073539      0.354677524     0.912567133
12.662968            0.356248503     0.911709581   0.000297444319 -0.000142468465   0.000297444319 -0.000142468465      0.355110014     0.912380762
12.662996            0.356685711     0.911520118   0.000297879777 -0.000142864512   0.000297879777 -0.000142864512       0.35554278     0.912194012
12.663024            0.357123198     0.911330268   0.000298315907 -0.000143261684   0.000298315907 -0.000143261683      0.355975821     0.912006883
12.663052            0.357560965      0.91114003    0.00029875271 -0.000143659982    0.00029875271 -0.000143659982      0.356409138     0.911819375
12.66308             0.357999012     0.910949403   0.000299190186 -0.000144059412   0.000299190186 -0.000144059412      0.356842731     0.911631485
12.663108            0.358437338     0.910758387   0.000299628336 -0.000144459976   0.000299628336 -0.000144459976        0.3572766     0.911443214
12.663136            0.358875944     0.910566981   0.000300067161 -0.000144861679   0.000300067162 -0.000144861678      0.357710746     0.911254561
12.663164             0.35931483     0.910375184   0.000300506662 -0.000145264522   0.000300506663 -0.000145264522      0.358145169     0.911065525
12.663192            0.359753997     0.910182994    0.00030094684  -0.00014566851    0.00030094684  -0.00014566851      0.358579869     0.910876105
12.66322             0.360193445     0.909990413   0.000301387695 -0.000146073646   0.000301387695 -0.000146073646      0.359014846       0.9106863
12.663248            0.360633173     0.909797437   0.000301829228 -0.000146479934   0.000301829229 -0.000146479934        0.3594501      0.91049611
12.663276            0.361073182     0.909604068    0.00030227144 -0.000146887377   0.000302271441 -0.000146887377      0.359885631     0.910305534
12.663304            0.361513473     0.909410303   0.000302714332 -0.000147295979   0.000302714332 -0.000147295978      0.360321441      0.91011457
12.663332            0.361954045     0.909216143   0.000303157904 -0.000147705742   0.000303157904 -0.000147705742      0.360757528      0.90992322
12.66336             0.362394899     0.909021586   0.000303602158 -0.000148116672   0.000303602158 -0.000148116672      0.361193894      0.90973148
12.663388            0.362836035     0.908826631   0.000304047093 -0.000148528771   0.000304047093 -0.000148528771      0.361630538     0.909539351
12.663416            0.363277453     0.908631278   0.000304492711 -0.000148942042   0.000304492711 -0.000148942042       0.36206746     0.909346832
12.663444            0.363719153     0.908435526   0.000304939012  -0.00014935649   0.000304939013  -0.00014935649      0.362504662     0.909153923
12.663472            0.364161135     0.908239374   0.000305385998 -0.000149772118   0.000305385998 -0.000149772118      0.362942142     0.908960621
12.6635              0.364603401     0.908042821   0.000305833669 -0.000150188929   0.000305833669 -0.000150188929      0.363379902     0.908766927
12.663528            0.365045949     0.907845867   0.000306282026 -0.000150606927   0.000306282026 -0.000150606927      0.363817941      0.90857284
12.663556            0.365488781      0.90764851   0.000306731069 -0.000151026116   0.000306731069 -0.000151026116       0.36425626     0.908378358
12.663584            0.365931895      0.90745075   0.000307180799   -0.0001514465   0.000307180799   -0.0001514465      0.364694858     0.908183482
12.663612            0.366375294     0.907252586   0.000307631218 -0.000151868081   0.000307631218 -0.000151868081      0.365133737      0.90798821
12.66364             0.366818976     0.907054017   0.000308082325 -0.000152290864   0.000308082325 -0.000152290864      0.365572896     0.907792541
12.663668            0.367262942     0.906855042   0.000308534122 -0.000152714852   0.000308534122 -0.000152714852      0.366012335     0.907596475
12.663696            0.367707192     0.906655661   0.000308986609 -0.000153140048   0.000308986609 -0.000153140048      0.366452055     0.907400011
12.663724            0.368151727     0.906455872   0.000309439787 -0.000153566458   0.000309439788 -0.000153566458      0.366892056     0.907203148
12.663752            0.368596546     0.906255675   0.000309893657 -0.000153994083   0.000309893658 -0.000153994083      0.367332338     0.907005885
12.66378              0.36904165     0.906055069    0.00031034822 -0.000154422929    0.00031034822 -0.000154422929      0.367772901     0.906808221
12.663808            0.369487038     0.905854053   0.000310803476 -0.000154852998   0.000310803476 -0.000154852998      0.368213746     0.906610156
12.663836            0.369932713     0.905652626   0.000311259426 -0.000155284294   0.000311259426 -0.000155284294      0.368654873     0.906411689
12.663864            0.370378672     0.905450788    0.00031171607 -0.000155716822    0.00031171607 -0.000155716822      0.369096281     0.906212818
12.663892            0.370824917     0.905248537    0.00031217341 -0.000156150584    0.00031217341 -0.000156150584      0.369537972     0.906013544
12.66392             0.371271448     0.905045873   0.000312631447 -0.000156585585   0.000312631447 -0.000156585585      0.369979944     0.905813865
12.663948            0.371718265     0.904842794    0.00031309018 -0.000157021828    0.00031309018 -0.000157021828        0.3704222      0.90561378
12.663976            0.372165368     0.904639301   0.000313549611 -0.000157459317   0.000313549611 -0.000157459317      0.370864738     0.905413289
12.664004            0.372612758     0.904435392    0.00031400974 -0.000157898056    0.00031400974 -0.000157898056      0.371307559      0.90521239
12.664032            0.373060434     0.904231065   0.000314470569 -0.000158338049   0.000314470569 -0.000158338049      0.371750663     0.905011084
12.66406             0.373508397     0.904026322   0.000314932097   -0.0001587793   0.000314932097 -0.000158779299      0.372194051     0.904809368
12.664088            0.373956647     0.903821159   0.000315394326 -0.000159221811   0.000315394326 -0.000159221811      0.372637722     0.904607243
12.664116            0.374405184     0.903615578   0.000315857256 -0.000159665588   0.000315857257 -0.000159665588      0.373081677     0.904404707
12.664144            0.374854009     0.903409576   0.000316320889 -0.000160110634   0.000316320889 -0.000160110634      0.373525916     0.904201759
12.664172            0.375303121     0.903203153   0.000316785224 -0.000160556953   0.000316785224 -0.000160556953      0.373970439       0.9039984
12.6642              0.375752522     0.902996308   0.000317250262 -0.000161004548   0.000317250262 -0.000161004548      0.374415246     0.903794627
12.664228             0.37620221      0.90278904   0.000317716005 -0.000161453425   0.000317716005 -0.000161453424      0.374860338      0.90359044
12.664256            0.376652187     0.902581349   0.000318182452 -0.000161903585   0.000318182452 -0.000161903585      0.375305715     0.903385838
12.664284            0.377102452     0.902373233   0.000318649605 -0.000162355034   0.000318649605 -0.000162355034      0.375751377      0.90318082
12.664312            0.377553005     0.902164691   0.000319117464 -0.000162807776   0.000319117465 -0.000162807776      0.376197324     0.902975385
12.66434             0.378003848     0.901955723   0.000319586031 -0.000163261814   0.000319586031 -0.000163261814      0.376643556     0.902769533
12.664368             0.37845498     0.901746328   0.000320055305 -0.000163717152   0.000320055305 -0.000163717152      0.377090074     0.902563263
12.664396            0.378906401     0.901536504   0.000320525287 -0.000164173795   0.000320525287 -0.000164173794      0.377536878     0.902356574
12.664424            0.379358111     0.901326252   0.000320995978 -0.000164631745   0.000320995978 -0.000164631745      0.377983968     0.902149464
12.664452            0.379810111     0.901115569   0.000321467379 -0.000165091008   0.000321467379 -0.000165091008      0.378431344     0.901941934
12.66448             0.380262401     0.900904456   0.000321939491 -0.000165551587   0.000321939491 -0.000165551587      0.378879006     0.901733981
12.664508            0.380714981     0.900692911   0.000322412313 -0.000166013486   0.000322412314 -0.000166013486      0.379326956     0.901525606
12.664536            0.381167852     0.900480933   0.000322885848  -0.00016647671   0.000322885848 -0.000166476709      0.379775191     0.901316807
12.664564            0.381621012     0.900268522   0.000323360095 -0.000166941261   0.000323360095 -0.000166941261      0.380223714     0.901107584
12.664592            0.382074464     0.900055676   0.000323835055 -0.000167407145   0.000323835055 -0.000167407145      0.380672525     0.900897935
12.66462             0.382528207     0.899842395   0.000324310729 -0.000167874366   0.000324310729 -0.000167874366      0.381121622     0.900687861
12.664648             0.38298224     0.899628678   0.000324787117 -0.000168342927   0.000324787117 -0.000168342926      0.381571008     0.900477359
12.664676            0.383436565     0.899414523    0.00032526422 -0.000168812832   0.000325264221 -0.000168812832      0.382020681     0.900266429
12.664704            0.383891181     0.899199931    0.00032574204 -0.000169284086    0.00032574204 -0.000169284086      0.382470642      0.90005507
12.664732            0.384346089     0.898984899   0.000326220576 -0.000169756693   0.000326220576 -0.000169756693      0.382920892     0.899843281
12.66476             0.384801289     0.898769427   0.000326699829 -0.000170230657   0.000326699829 -0.000170230656       0.38337143     0.899631061
12.664788            0.385256781     0.898553515   0.000327179799 -0.000170705981     0.0003271798 -0.000170705981      0.383822256      0.89941841
12.664816            0.385712566      0.89833716   0.000327660489 -0.000171182671   0.000327660489 -0.000171182671      0.384273372     0.899205327
12.664844            0.386168643     0.898120363   0.000328141897 -0.000171660731   0.000328141897  -0.00017166073      0.384724777     0.898991809
12.664872            0.386625012     0.897903122   0.000328624025 -0.000172140163   0.000328624025 -0.000172140163       0.38517647     0.898777858
12.6649              0.387081675     0.897685437   0.000329106874 -0.000172620974   0.000329106874 -0.000172620974      0.385628454     0.898563471
12.664928             0.38753863     0.897467306   0.000329590443 -0.000173103166   0.000329590444 -0.000173103166      0.386080727     0.898348649
12.664956            0.387995879     0.897248729   0.000330074735 -0.000173586745   0.000330074735 -0.000173586745       0.38653329     0.898133389
12.664984            0.388453422     0.897029704   0.000330559748 -0.000174071714   0.000330559749 -0.000174071714      0.386986143     0.897917691
12.665012            0.388911258     0.896810231   0.000331045485 -0.000174558078   0.000331045485 -0.000174558078      0.387439286     0.897701554
12.66504             0.389369388     0.896590309   0.000331531945  -0.00017504584   0.000331531945  -0.00017504584       0.38789272     0.897484977
12.665068            0.389827812     0.896369936    0.00033201913 -0.000175535006    0.00033201913 -0.000175535006      0.388346444      0.89726796
12.665096             0.39028653     0.896149112   0.000332507039 -0.000176025579   0.000332507039 -0.000176025579      0.388800459     0.897050501
12.665124            0.390745543     0.895927836   0.000332995674 -0.000176517564   0.000332995674 -0.000176517564      0.389254766     0.896832599
12.665152            0.391204851     0.895706107   0.000333485034 -0.000177010965   0.000333485035 -0.000177010965      0.389709363     0.896614254
12.66518             0.391664453     0.895483924   0.000333975122 -0.000177505786   0.000333975122 -0.000177505786      0.390164252     0.896395464
12.665208            0.392124351     0.895261286   0.000334465937 -0.000178002033   0.000334465937 -0.000178002032      0.390619433     0.896176229
12.665236            0.392584544     0.895038192   0.000334957479 -0.000178499708    0.00033495748 -0.000178499708      0.391074906     0.895956548
12.665264            0.393045032     0.894814641   0.000335449751 -0.000178998817   0.000335449751 -0.000178998816      0.391530671     0.895736419
12.665292            0.393505816     0.894590632   0.000335942751 -0.000179499363   0.000335942751 -0.000179499363      0.391986728     0.895515842
12.66532             0.393966896     0.894366164   0.000336436481 -0.000180001352   0.000336436481 -0.000180001352      0.392443077     0.895294816
12.665348            0.394428272     0.894141237   0.000336930941 -0.000180504787   0.000336930941 -0.000180504787       0.39289972      0.89507334
12.665376            0.394889944     0.893915848   0.000337426132 -0.000181009674   0.000337426133 -0.000181009674      0.393356655     0.894851412
12.665404            0.395351913     0.893689998   0.000337922055 -0.000181516016   0.000337922055 -0.000181516016      0.393813883     0.894629033