! TOUCHSTONE file generated by CST MICROWAVE STUDIO
! Date and time: Wed Jul 31 20:18:24 2024
! Project name: WaveGuide_BPF-Ver4.1_U-shape_Ku_T3_C4_CWA_2.cst
! Parameters = {cavity_h=16; cavity_l0=10; cavity_l1=15.1884; cavity_l2=16.8043; cavity_l3=17.1067; cavity_l4=17.2819; cavity_l5=17.1251; cavity_l6=17.6344; cavity_r=2.5; cavity_screw_l=0.5; cavity_screw_r=1.5; cavity_w=8; iris_h00=0; iris_h01=8.8046; iris_h112=0; iris_h12=5.6092; iris_h211=3.6574; iris_h23=5.1937; iris_h310=3.974; iris_h34=5.0867; iris_h45=4.9291; iris_h49=4.6311; iris_h56=4.808; iris_h58=4.4378; iris_h67=6.5866; iris_rx=0.1; iris_screw_l=0.5; iris_screw_r=1.5; iris_shift00=0; iris_shift112=0; iris_shift211=3.5; iris_shift310=0; iris_shift49=0; iris_shift58=3.5; iris_shift67=3.5; iris_tx=4.5; iris_tz=4.5; iris_w00=0; iris_w112=0; iris_w211=4; iris_w310=3.974; iris_w49=4.6311; iris_w58=4; iris_w67=4; mesh_cavity=5; mesh_iris=7; mesh_screw=7; order=12; reset_all=0; sigma=4.8e+07}
! Header version: 2018
! Port assignment regex: !\s*Touchstone port\s*([0-9]+)\s*=\s*(CST MWS port|CST DS port)\s*([0-9]+|Zmin|Zmax)\s*\(\"(.*)\"\)(\s*mode\s*([0-9]+))?.*
! Touchstone port assignment:
! Touchstone port 1 = CST MWS port 1 ("")
! Touchstone port 2 = CST MWS port 2 ("")
# GHz S RI R 50
12.66                0.239074588     0.954218498   0.000149490456 -4.78905605e-05   0.000149490456 -4.78905601e-05      0.245138609     0.952663719
12.660028             0.23942115     0.954121391   0.000149678997 -4.80143808e-05   0.000149678997 -4.80143804e-05      0.245485674     0.952564076
12.660056            0.239767876     0.954024096   0.000149867803 -4.81385024e-05   0.000149867803  -4.8138502e-05      0.245832946     0.952464232
12.660084            0.240114778     0.953926608   0.000150056874 -4.82629265e-05   0.000150056874 -4.82629261e-05      0.246180418     0.952364186
12.660112            0.240461868     0.953828925   0.000150246209 -4.83876541e-05   0.000150246209 -4.83876537e-05      0.246528083     0.952263942
12.66014             0.240809158     0.953731043    0.00015043581 -4.85126865e-05    0.00015043581 -4.85126861e-05      0.246875936     0.952163499
12.660168            0.241156647     0.953632963   0.000150625676 -4.86380244e-05   0.000150625676  -4.8638024e-05      0.247223976     0.952062858
12.660196            0.241504328     0.953534685   0.000150815808 -4.87636683e-05   0.000150815808 -4.87636679e-05      0.247572209     0.951962017
12.660224            0.241852201      0.95343621   0.000151006207 -4.88896191e-05   0.000151006207 -4.88896187e-05      0.247920633     0.951860976
12.660252            0.242200267     0.953337537   0.000151196872 -4.90158774e-05   0.000151196872  -4.9015877e-05       0.24826925     0.951759735
12.66028             0.242548525     0.953238666   0.000151387804 -4.91424442e-05   0.000151387804 -4.91424438e-05      0.248618059     0.951658292
12.660308            0.242896976     0.953139596   0.000151579004 -4.92693201e-05   0.000151579003 -4.92693198e-05      0.248967061     0.951556649
12.660336            0.243245619     0.953040327   0.000151770471 -4.93965061e-05   0.000151770471 -4.93965057e-05      0.249316255     0.951454804
12.660364            0.243594455     0.952940859   0.000151962206 -4.95240028e-05   0.000151962206 -4.95240024e-05      0.249665642     0.951352757
12.660392            0.243943485     0.952841191    0.00015215421  -4.9651811e-05    0.00015215421 -4.96518106e-05      0.250015222     0.951250509
12.66042             0.244292707     0.952741324   0.000152346482 -4.97799316e-05   0.000152346482 -4.97799312e-05      0.250364995     0.951148058
12.660448            0.244642123     0.952641256   0.000152539024 -4.99083654e-05   0.000152539024  -4.9908365e-05      0.250714961     0.951045404
12.660476            0.244991732     0.952540988   0.000152731836 -5.00371131e-05   0.000152731835 -5.00371127e-05      0.251065121     0.950942546
12.660504            0.245341535     0.952440519   0.000152924917 -5.01661755e-05   0.000152924917 -5.01661752e-05      0.251415474     0.950839486
12.660532            0.245691531     0.952339849   0.000153118268 -5.02955536e-05   0.000153118268 -5.02955532e-05      0.251766021     0.950736222
12.66056             0.246041722     0.952238977    0.00015331189  -5.0425248e-05    0.00015331189 -5.04252476e-05      0.252116762     0.950632753
12.660588            0.246392106     0.952137904   0.000153505783 -5.05552596e-05   0.000153505783 -5.05552592e-05      0.252467696      0.95052908
12.660616            0.246742684     0.952036628   0.000153699948 -5.06855891e-05   0.000153699948 -5.06855887e-05      0.252818824     0.950425203
12.660644            0.247093457      0.95193515   0.000153894384 -5.08162375e-05   0.000153894384 -5.08162371e-05      0.253170147      0.95032112
12.660672            0.247444424     0.951833469   0.000154089092 -5.09472055e-05   0.000154089092 -5.09472051e-05      0.253521664     0.950216831
12.6607              0.247795586     0.951731584   0.000154284073 -5.10784939e-05   0.000154284073 -5.10784935e-05      0.253873376     0.950112337
12.660728            0.248146942     0.951629496   0.000154479326 -5.12101036e-05   0.000154479326 -5.12101032e-05      0.254225282     0.950007637
12.660756            0.248498493     0.951527205   0.000154674853 -5.13420353e-05   0.000154674853 -5.13420349e-05      0.254577383      0.94990273
12.660784            0.248850239     0.951424709   0.000154870653   -5.147429e-05   0.000154870653 -5.14742896e-05      0.254929678     0.949797616
12.660812             0.24920218     0.951322008   0.000155066727 -5.16068684e-05   0.000155066727  -5.1606868e-05      0.255282169     0.949692296
12.66084             0.249554316     0.951219103   0.000155263076 -5.17397713e-05   0.000155263076 -5.17397709e-05      0.255634855     0.949586767
12.660868            0.249906648     0.951115992   0.000155459698 -5.18729996e-05   0.000155459698 -5.18729992e-05      0.255987736     0.949481031
12.660896            0.250259175     0.951012676   0.000155656596 -5.20065542e-05   0.000155656596 -5.20065538e-05      0.256340812     0.949375087
12.660924            0.250611898     0.950909154    0.00015585377 -5.21404358e-05    0.00015585377 -5.21404354e-05      0.256694084     0.949268934
12.660952            0.250964817     0.950805426   0.000156051219 -5.22746453e-05   0.000156051218 -5.22746449e-05      0.257047552     0.949162572
12.66098             0.251317931     0.950701491   0.000156248944 -5.24091835e-05   0.000156248943 -5.24091831e-05      0.257401216     0.949056001
12.661008            0.251671242     0.950597349   0.000156446945 -5.25440514e-05   0.000156446945  -5.2544051e-05      0.257755075      0.94894922
12.661036            0.252024749        0.950493   0.000156645223 -5.26792496e-05   0.000156645223 -5.26792492e-05      0.258109131     0.948842229
12.661064            0.252378452     0.950388444   0.000156843779 -5.28147791e-05   0.000156843779 -5.28147787e-05      0.258463383     0.948735028
12.661092            0.252732351     0.950283679   0.000157042612 -5.29506407e-05   0.000157042612 -5.29506403e-05      0.258817831     0.948627617
12.66112             0.253086448     0.950178706   0.000157241722 -5.30868353e-05   0.000157241722 -5.30868349e-05      0.259172476     0.948519994
12.661148            0.253440741     0.950073524   0.000157441112 -5.32233637e-05   0.000157441111 -5.32233633e-05      0.259527318      0.94841216
12.661176            0.253795231     0.949968134   0.000157640779 -5.33602268e-05   0.000157640779 -5.33602264e-05      0.259882356     0.948304114
12.661204            0.254149918     0.949862534   0.000157840726 -5.34974255e-05   0.000157840726 -5.34974251e-05      0.260237591     0.948195857
12.661232            0.254504802     0.949756724   0.000158040952 -5.36349605e-05   0.000158040952 -5.36349601e-05      0.260593024     0.948087387
12.66126             0.254859883     0.949650705   0.000158241458 -5.37728328e-05   0.000158241458 -5.37728324e-05      0.260948653     0.947978704
12.661288            0.255215162     0.949544475   0.000158442244 -5.39110432e-05   0.000158442244 -5.39110428e-05       0.26130448     0.947869808
12.661316            0.255570639     0.949438034    0.00015864331 -5.40495926e-05    0.00015864331 -5.40495922e-05      0.261660504     0.947760699
12.661344            0.255926313     0.949331382   0.000158844657 -5.41884819e-05   0.000158844657 -5.41884815e-05      0.262016726     0.947651376
12.661372            0.256282185     0.949224519   0.000159046286 -5.43277119e-05   0.000159046286 -5.43277115e-05      0.262373146     0.947541838
12.6614              0.256638255     0.949117444   0.000159248196 -5.44672835e-05   0.000159248196 -5.44672831e-05      0.262729764     0.947432086
12.661428            0.256994523     0.949010156   0.000159450388 -5.46071976e-05   0.000159450388 -5.46071972e-05       0.26308658      0.94732212
12.661456             0.25735099     0.948902657   0.000159652862  -5.4747455e-05   0.000159652862 -5.47474546e-05      0.263443594     0.947211938
12.661484            0.257707655     0.948794944   0.000159855619 -5.48880567e-05   0.000159855619 -5.48880563e-05      0.263800806      0.94710154
12.661512            0.258064519     0.948687018   0.000160058659 -5.50290036e-05   0.000160058659 -5.50290032e-05      0.264158217     0.946990927
12.66154             0.258421581     0.948578879   0.000160261982 -5.51702964e-05   0.000160261982  -5.5170296e-05      0.264515826     0.946880097
12.661568            0.258778842     0.948470526   0.000160465589 -5.53119362e-05   0.000160465589 -5.53119358e-05      0.264873634      0.94676905
12.661596            0.259136302     0.948361958    0.00016066948 -5.54539238e-05    0.00016066948 -5.54539234e-05      0.265231641     0.946657787
12.661624            0.259493962     0.948253176   0.000160873656   -5.559626e-05   0.000160873656 -5.55962596e-05      0.265589847     0.946546306
12.661652             0.25985182     0.948144179   0.000161078116 -5.57389459e-05   0.000161078116 -5.57389455e-05      0.265948252     0.946434607
12.66168             0.260209878     0.948034966   0.000161282862 -5.58819822e-05   0.000161282862 -5.58819818e-05      0.266306857     0.946322691
12.661708            0.260568136     0.947925538   0.000161487894 -5.60253699e-05   0.000161487894 -5.60253695e-05       0.26666566     0.946210555
12.661736            0.260926593     0.947815894   0.000161693211 -5.61691099e-05   0.000161693211 -5.61691095e-05      0.267024664     0.946098201
12.661764             0.26128525     0.947706033   0.000161898815 -5.63132031e-05   0.000161898815 -5.63132027e-05      0.267383867     0.945985628
12.661792            0.261644107     0.947595955   0.000162104705 -5.64576504e-05   0.000162104705   -5.645765e-05       0.26774327     0.945872835
12.66182             0.262003164     0.947485661   0.000162310883 -5.66024527e-05   0.000162310883 -5.66024523e-05      0.268102873     0.945759822
12.661848            0.262362422     0.947375148   0.000162517348 -5.67476109e-05   0.000162517348 -5.67476105e-05      0.268462676     0.945646589
12.661876             0.26272188     0.947264418   0.000162724101 -5.68931259e-05   0.000162724101 -5.68931255e-05      0.268822679     0.945533135
12.661904            0.263081538      0.94715347   0.000162931142 -5.70389988e-05   0.000162931142 -5.70389984e-05      0.269182883      0.94541946
12.661932            0.263441397     0.947042303   0.000163138472 -5.71852303e-05   0.000163138472 -5.71852299e-05      0.269543288     0.945305564
12.66196             0.263801457     0.946930917    0.00016334609 -5.73318214e-05    0.00016334609  -5.7331821e-05      0.269903893     0.945191446
12.661988            0.264161718     0.946819312   0.000163553998  -5.7478773e-05   0.000163553998 -5.74787726e-05      0.270264698     0.945077105
12.662016             0.26452218     0.946707487   0.000163762196 -5.76260861e-05   0.000163762196 -5.76260857e-05      0.270625705     0.944962543
12.662044            0.264882843     0.946595442   0.000163970684 -5.77737615e-05   0.000163970683 -5.77737611e-05      0.270986913     0.944847757
12.662072            0.265243707     0.946483176   0.000164179462 -5.79218003e-05   0.000164179462 -5.79217999e-05      0.271348322     0.944732748
12.6621              0.265604773      0.94637069    0.00016438853 -5.80702034e-05    0.00016438853  -5.8070203e-05      0.271709933     0.944617515
12.662128            0.265966041     0.946257983   0.000164597891 -5.82189716e-05    0.00016459789 -5.82189712e-05      0.272071745     0.944502058
12.662156            0.266327511     0.946145054   0.000164807542 -5.83681059e-05   0.000164807542 -5.83681055e-05      0.272433758     0.944386377
12.662184            0.266689182     0.946031903   0.000165017486 -5.85176074e-05   0.000165017486  -5.8517607e-05      0.272795974     0.944270471
12.662212            0.267051056     0.945918529   0.000165227721 -5.86674768e-05   0.000165227721 -5.86674764e-05      0.273158391      0.94415434
12.66224             0.267413131     0.945804933    0.00016543825 -5.88177152e-05    0.00016543825 -5.88177148e-05      0.273521011     0.944037984
12.662268             0.26777541     0.945691114   0.000165649071 -5.89683235e-05   0.000165649071 -5.89683231e-05      0.273883833     0.943921401
12.662296             0.26813789     0.945577072   0.000165860186 -5.91193027e-05   0.000165860186 -5.91193023e-05      0.274246857     0.943804592
12.662324            0.268500573     0.945462806   0.000166071595 -5.92706537e-05   0.000166071595 -5.92706533e-05      0.274610083     0.943687557
12.662352            0.268863459     0.945348315   0.000166283297 -5.94223775e-05   0.000166283297 -5.94223771e-05      0.274973512     0.943570294
12.66238             0.269226548       0.9452336   0.000166495295 -5.95744751e-05   0.000166495295 -5.95744747e-05      0.275337144     0.943452804
12.662408             0.26958984      0.94511866   0.000166707587 -5.97269473e-05   0.000166707587 -5.97269469e-05      0.275700979     0.943335087
12.662436            0.269953336     0.945003495   0.000166920174 -5.98797952e-05   0.000166920174 -5.98797948e-05      0.276065017     0.943217141
12.662464            0.270317034     0.944888104   0.000167133057 -6.00330198e-05   0.000167133057 -6.00330194e-05      0.276429258     0.943098966
12.662492            0.270680936     0.944772487   0.000167346236  -6.0186622e-05   0.000167346236 -6.01866216e-05      0.276793703     0.942980562
12.66252             0.271045042     0.944656644   0.000167559712 -6.03406027e-05   0.000167559712 -6.03406023e-05      0.277158351      0.94286193
12.662548            0.271409352     0.944540574   0.000167773484  -6.0494963e-05   0.000167773484 -6.04949626e-05      0.277523202     0.942743067
12.662576            0.271773865     0.944424276   0.000167987553 -6.06497039e-05   0.000167987553 -6.06497035e-05      0.277888257     0.942623974
12.662604            0.272138582     0.944307751    0.00016820192 -6.08048263e-05    0.00016820192 -6.08048259e-05      0.278253516     0.942504651
12.662632            0.272503504     0.944190998   0.000168416585 -6.09603312e-05   0.000168416585 -6.09603307e-05       0.27861898     0.942385097
12.66266              0.27286863     0.944074017   0.000168631547 -6.11162195e-05   0.000168631547 -6.11162191e-05      0.278984647     0.942265311
12.662688             0.27323396     0.943956807   0.000168846809 -6.12724924e-05   0.000168846809  -6.1272492e-05      0.279350519     0.942145294
12.662716            0.273599496     0.943839367   0.000169062369 -6.14291507e-05   0.000169062369 -6.14291503e-05      0.279716595     0.942025045
12.662744            0.273965235     0.943721699   0.000169278229 -6.15861955e-05   0.000169278229 -6.15861951e-05      0.280082875     0.941904563
12.662772             0.27433118       0.9436038   0.000169494389 -6.17436278e-05   0.000169494389 -6.17436274e-05      0.280449361     0.941783848
12.6628               0.27469733     0.943485671   0.000169710848 -6.19014485e-05   0.000169710848 -6.19014481e-05      0.280816051     0.941662901
12.662828            0.275063685     0.943367311   0.000169927608 -6.20596587e-05   0.000169927608 -6.20596583e-05      0.281182946     0.941541719
12.662856            0.275430245      0.94324872   0.000170144669 -6.22182594e-05   0.000170144669  -6.2218259e-05      0.281550046     0.941420304
12.662884            0.275797011     0.943129898   0.000170362031 -6.23772515e-05   0.000170362031 -6.23772511e-05      0.281917352     0.941298654
12.662912            0.276163982     0.943010844   0.000170579695 -6.25366362e-05   0.000170579695 -6.25366358e-05      0.282284863     0.941176769
12.66294             0.276531159     0.942891558   0.000170797661 -6.26964143e-05   0.000170797661 -6.26964139e-05       0.28265258     0.941054649
12.662968            0.276898542     0.942772039   0.000171015929  -6.2856587e-05   0.000171015929 -6.28565866e-05      0.283020502     0.940932293
12.662996            0.277266131     0.942652287     0.0001712345 -6.30171552e-05     0.0001712345 -6.30171548e-05       0.28338863     0.940809702
12.663024            0.277633926     0.942532302   0.000171453374   -6.317812e-05   0.000171453374 -6.31781196e-05      0.283756964     0.940686874
12.663052            0.278001927     0.942412082   0.000171672551 -6.33394824e-05   0.000171672551  -6.3339482e-05      0.284125504     0.940563809
12.66308             0.278370135     0.942291629   0.000171892032 -6.35012434e-05   0.000171892032 -6.35012429e-05      0.284494251     0.940440507
12.663108            0.278738549     0.942170941   0.000172111817  -6.3663404e-05   0.000172111817 -6.36634036e-05      0.284863204     0.940316967
12.663136            0.279107171     0.942050018   0.000172331907 -6.38259653e-05   0.000172331907 -6.38259649e-05      0.285232363     0.940193189
12.663164            0.279475999     0.941928859   0.000172552302 -6.39889283e-05   0.000172552302 -6.39889279e-05      0.285601729     0.940069173
12.663192            0.279845034     0.941807465   0.000172773002 -6.41522941e-05   0.000172773002 -6.41522937e-05      0.285971302     0.939944918
12.66322             0.280214276     0.941685835   0.000172994008 -6.43160637e-05   0.000172994008 -6.43160632e-05      0.286341082     0.939820424
12.663248            0.280583725     0.941563967    0.00017321532 -6.44802381e-05    0.00017321532 -6.44802376e-05      0.286711069      0.93969569
12.663276            0.280953382     0.941441863   0.000173436939 -6.46448184e-05   0.000173436939 -6.46448179e-05      0.287081263     0.939570716
12.663304            0.281323247     0.941319522   0.000173658864 -6.48098056e-05   0.000173658864 -6.48098052e-05      0.287451665     0.939445502
12.663332            0.281693319     0.941196943   0.000173881096 -6.49752008e-05   0.000173881096 -6.49752004e-05      0.287822274     0.939320046
12.66336             0.282063599     0.941074125   0.000174103636  -6.5141005e-05   0.000174103636 -6.51410046e-05       0.28819309      0.93919435
12.663388            0.282434087     0.940951069   0.000174326484 -6.53072194e-05   0.000174326484  -6.5307219e-05      0.288564115     0.939068412
12.663416            0.282804783     0.940827774    0.00017454964 -6.54738449e-05    0.00017454964 -6.54738445e-05      0.288935347     0.938942231
12.663444            0.283175687     0.940704239   0.000174773105 -6.56408826e-05   0.000174773105 -6.56408822e-05      0.289306787     0.938815809
12.663472              0.2835468     0.940580464   0.000174996879 -6.58083337e-05   0.000174996879 -6.58083332e-05      0.289678436     0.938689143
12.6635              0.283918122      0.94045645   0.000175220963 -6.59761991e-05   0.000175220963 -6.59761986e-05      0.290050293     0.938562234
12.663528            0.284289652     0.940332194   0.000175445356 -6.61444799e-05   0.000175445356 -6.61444795e-05      0.290422359     0.938435081
12.663556            0.284661391     0.940207698   0.000175670059 -6.63131772e-05   0.000175670059 -6.63131768e-05      0.290794633     0.938307684
12.663584            0.285033339      0.94008296   0.000175895073 -6.64822921e-05   0.000175895073 -6.64822917e-05      0.291167115     0.938180043
12.663612            0.285405496      0.93995798   0.000176120398 -6.66518257e-05   0.000176120398 -6.66518253e-05      0.291539807     0.938052156
12.66364             0.285777862     0.939832758   0.000176346034  -6.6821779e-05   0.000176346034 -6.68217786e-05      0.291912708     0.937924024
12.663668            0.286150438     0.939707293   0.000176571982 -6.69921532e-05   0.000176571982 -6.69921528e-05      0.292285818     0.937795646
12.663696            0.286523223     0.939581585   0.000176798242 -6.71629493e-05   0.000176798242 -6.71629489e-05      0.292659137     0.937667023
12.663724            0.286896218     0.939455634   0.000177024814 -6.73341684e-05   0.000177024814  -6.7334168e-05      0.293032666     0.937538152
12.663752            0.287269423     0.939329438   0.000177251699 -6.75058116e-05   0.000177251699 -6.75058112e-05      0.293406404     0.937409034
12.66378             0.287642837     0.939202998   0.000177478897 -6.76778801e-05   0.000177478897 -6.76778797e-05      0.293780352     0.937279669
12.663808            0.288016462     0.939076314   0.000177706409 -6.78503748e-05   0.000177706409 -6.78503744e-05       0.29415451     0.937150056
12.663836            0.288390297     0.938949384   0.000177934235  -6.8023297e-05   0.000177934235 -6.80232966e-05      0.294528878     0.937020194
12.663864            0.288764343     0.938822208   0.000178162374 -6.81966477e-05   0.000178162374 -6.81966473e-05      0.294903456     0.936890084
12.663892            0.289138599     0.938694787   0.000178390829 -6.83704281e-05   0.000178390829 -6.83704277e-05      0.295278245     0.936759725
12.66392             0.289513065     0.938567119   0.000178619599 -6.85446392e-05   0.000178619599 -6.85446388e-05      0.295653243     0.936629116
12.663948            0.289887743     0.938439204   0.000178848684 -6.87192822e-05   0.000178848684 -6.87192817e-05      0.296028453     0.936498257
12.663976            0.290262631     0.938311042   0.000179078084 -6.88943581e-05   0.000179078084 -6.88943577e-05      0.296403873     0.936367147
12.664004            0.290637731     0.938182632   0.000179307801 -6.90698682e-05   0.000179307801 -6.90698677e-05      0.296779504     0.936235787
12.664032            0.291013042     0.938053974   0.000179537835 -6.92458135e-05   0.000179537835  -6.9245813e-05      0.297155346     0.936104175
12.66406             0.291388564     0.937925067   0.000179768185 -6.94221951e-05   0.000179768185 -6.94221947e-05      0.297531399     0.935972311
12.664088            0.291764298     0.937795912   0.000179998852 -6.95990143e-05   0.000179998852 -6.95990139e-05      0.297907663     0.935840196
12.664116            0.292140243     0.937666507   0.000180229838 -6.97762721e-05   0.000180229837 -6.97762717e-05      0.298284139     0.935707827
12.664144              0.2925164     0.937536852   0.000180461141 -6.99539696e-05   0.000180461141 -6.99539692e-05      0.298660826     0.935575206
12.664172            0.292892769     0.937406947   0.000180692762 -7.01321081e-05   0.000180692762 -7.01321077e-05      0.299037725     0.935442331
12.6642               0.29326935     0.937276791   0.000180924702 -7.03106886e-05   0.000180924702 -7.03106882e-05      0.299414836     0.935309202
12.664228            0.293646144     0.937146384   0.000181156962 -7.04897123e-05   0.000181156962 -7.04897119e-05      0.299792159     0.935175819
12.664256            0.294023149     0.937015725   0.000181389541 -7.06691804e-05   0.000181389541 -7.06691799e-05      0.300169693     0.935042181
12.664284            0.294400368     0.936884815   0.000181622439 -7.08490939e-05   0.000181622439 -7.08490935e-05       0.30054744     0.934908288
12.664312            0.294777798     0.936753652   0.000181855658 -7.10294541e-05   0.000181855658 -7.10294537e-05        0.3009254     0.934774139
12.66434             0.295155442     0.936622236   0.000182089198 -7.12102621e-05   0.000182089198 -7.12102617e-05      0.301303572     0.934639734
12.664368            0.295533299     0.936490566   0.000182323058 -7.13915192e-05   0.000182323058 -7.13915187e-05      0.301681956     0.934505073
12.664396            0.295911368     0.936358644    0.00018255724 -7.15732263e-05    0.00018255724 -7.15732259e-05      0.302060554     0.934370154
12.664424            0.296289651     0.936226466   0.000182791743 -7.17553848e-05   0.000182791743 -7.17553843e-05      0.302439364     0.934234979
12.664452            0.296668147     0.936094035   0.000183026569 -7.19379957e-05   0.000183026569 -7.19379953e-05      0.302818387     0.934099545
12.66448             0.297046857     0.935961348   0.000183261717 -7.21210603e-05   0.000183261717 -7.21210599e-05      0.303197624     0.933963853
12.664508             0.29742578     0.935828406   0.000183497188 -7.23045797e-05   0.000183497188 -7.23045793e-05      0.303577074     0.933827902
12.664536            0.297804917     0.935695208   0.000183732982 -7.24885552e-05   0.000183732982 -7.24885547e-05      0.303956737     0.933691692
12.664564            0.298184268     0.935561753   0.000183969099 -7.26729878e-05   0.000183969099 -7.26729874e-05      0.304336614     0.933555223
12.664592            0.298563833     0.935428042   0.000184205541 -7.28578788e-05   0.000184205541 -7.28578784e-05      0.304716705     0.933418493
12.66462             0.298943612     0.935294073   0.000184442306 -7.30432294e-05   0.000184442306  -7.3043229e-05       0.30509701     0.933281503
12.664648            0.299323606     0.935159847   0.000184679397 -7.32290408e-05   0.000184679397 -7.32290404e-05      0.305477528     0.933144252
12.664676            0.299703814     0.935025363   0.000184916812 -7.34153142e-05   0.000184916812 -7.34153137e-05      0.305858261     0.933006739
12.664704            0.300084236      0.93489062   0.000185154553 -7.36020507e-05   0.000185154553 -7.36020503e-05      0.306239209     0.932868965
12.664732            0.300464874     0.934755618   0.000185392619 -7.37892516e-05   0.000185392619 -7.37892511e-05       0.30662037     0.932730928
12.66476             0.300845726     0.934620356   0.000185631012  -7.3976918e-05   0.000185631012 -7.39769176e-05      0.307001746     0.932592628
12.664788            0.301226793     0.934484835   0.000185869731 -7.41650513e-05   0.000185869731 -7.41650509e-05      0.307383337     0.932454065
12.664816            0.301608076     0.934349053   0.000186108777 -7.43536526e-05   0.000186108777 -7.43536521e-05      0.307765143     0.932315239
12.664844            0.301989573     0.934213011   0.000186348151  -7.4542723e-05   0.000186348151 -7.45427226e-05      0.308147164     0.932176148
12.664872            0.302371287     0.934076707   0.000186587851 -7.47322639e-05   0.000186587851 -7.47322635e-05        0.3085294     0.932036793
12.6649              0.302753215     0.933940141    0.00018682788 -7.49222765e-05    0.00018682788 -7.49222761e-05      0.308911851     0.931897173
12.664928             0.30313536     0.933803314   0.000187068237 -7.51127619e-05   0.000187068237 -7.51127615e-05      0.309294518     0.931757287
12.664956             0.30351772     0.933666224   0.000187308923 -7.53037215e-05   0.000187308923 -7.53037211e-05        0.3096774     0.931617135
12.664984            0.303900297      0.93352887   0.000187549938 -7.54951564e-05   0.000187549938  -7.5495156e-05      0.310060498     0.931476717
12.665012            0.304283089     0.933391253   0.000187791282 -7.56870679e-05   0.000187791282 -7.56870675e-05      0.310443812     0.931336032
12.66504             0.304666098     0.933253373   0.000188032956 -7.58794572e-05   0.000188032956 -7.58794568e-05      0.310827342      0.93119508
12.665068            0.305049323     0.933115227   0.000188274961 -7.60723256e-05   0.000188274961 -7.60723252e-05      0.311211088     0.931053859
12.665096            0.305432765     0.932976817   0.000188517295 -7.62656743e-05   0.000188517295 -7.62656739e-05       0.31159505     0.930912371
12.665124            0.305816424     0.932838142   0.000188759961 -7.64595046e-05   0.000188759961 -7.64595041e-05      0.311979228     0.930770614
12.665152            0.306200299     0.932699201   0.000189002958 -7.66538176e-05   0.000189002958 -7.66538172e-05      0.312363623     0.930628587
12.66518             0.306584391     0.932559993   0.000189246287 -7.68486148e-05   0.000189246286 -7.68486143e-05      0.312748235     0.930486291
12.665208            0.306968701     0.932420519   0.000189489947 -7.70438972e-05   0.000189489947 -7.70438968e-05      0.313133063     0.930343725
12.665236            0.307353228     0.932280777    0.00018973394 -7.72396663e-05    0.00018973394 -7.72396659e-05      0.313518109     0.930200888
12.665264            0.307737972     0.932140768   0.000189978265 -7.74359232e-05   0.000189978265 -7.74359228e-05      0.313903371      0.93005778
12.665292            0.308122933     0.932000491   0.000190222924 -7.76326692e-05   0.000190222924 -7.76326688e-05      0.314288851     0.929914401
12.66532             0.308508113     0.931859945   0.000190467916 -7.78299057e-05   0.000190467916 -7.78299052e-05      0.314674548      0.92977075
12.665348             0.30889351     0.931719131   0.000190713242 -7.80276338e-05   0.000190713242 -7.80276333e-05      0.315060462     0.929626826
12.665376            0.309279125     0.931578046   0.000190958902 -7.82258548e-05   0.000190958902 -7.82258544e-05      0.315446594     0.929482629
12.665404            0.309664958     0.931436692   0.000191204896 -7.84245701e-05   0.000191204896 -7.84245697e-05      0.315832944     0.929338159