! TOUCHSTONE file generated by CST MICROWAVE STUDIO
! Date and time: Wed Jul 31 20:53:29 2024
! Project name: WaveGuide_BPF-Ver4.1_U-shape_Ku_T3_C4_CWA_2.cst
! Parameters = {cavity_h=16; cavity_l0=10; cavity_l1=15.1992; cavity_l2=16.8498; cavity_l3=17.1151; cavity_l4=17.2254; cavity_l5=17.1419; cavity_l6=17.6372; cavity_r=2.5; cavity_screw_l=0.5; cavity_screw_r=1.5; cavity_w=8; iris_h00=0; iris_h01=8.805; iris_h112=0; iris_h12=5.5948; iris_h211=3.6555; iris_h23=5.2028; iris_h310=3.973; iris_h34=5.0722; iris_h45=4.9301; iris_h49=4.6206; iris_h56=4.8056; iris_h58=4.4289; iris_h67=6.5878; iris_rx=0.1; iris_screw_l=0.5; iris_screw_r=1.5; iris_shift00=0; iris_shift112=0; iris_shift211=3.5; iris_shift310=0; iris_shift49=0; iris_shift58=3.5; iris_shift67=3.5; iris_tx=4.5; iris_tz=4.5; iris_w00=0; iris_w112=0; iris_w211=4; iris_w310=3.973; iris_w49=4.6206; iris_w58=4; iris_w67=4; mesh_cavity=5; mesh_iris=7; mesh_screw=7; order=12; reset_all=0; sigma=4.8e+07}
! Header version: 2018
! Port assignment regex: !\s*Touchstone port\s*([0-9]+)\s*=\s*(CST MWS port|CST DS port)\s*([0-9]+|Zmin|Zmax)\s*\(\"(.*)\"\)(\s*mode\s*([0-9]+))?.*
! Touchstone port assignment:
! Touchstone port 1 = CST MWS port 1 ("")
! Touchstone port 2 = CST MWS port 2 ("")
# GHz S RI R 50
12.66                0.274273438     0.943141846   0.000223439548 -8.23828198e-05   0.000223439548 -8.23828198e-05      0.275358477     0.942871967
12.660028             0.27465003     0.943019475    0.00022375973   -8.260982e-05    0.00022375973   -8.260982e-05      0.275734322     0.942749388
12.660056            0.275026847     0.942896855   0.000224080431 -8.28374477e-05   0.000224080431 -8.28374477e-05      0.276110448     0.942626545
12.660084            0.275403889     0.942773986   0.000224401654 -8.30657025e-05   0.000224401654 -8.30657025e-05      0.276486832     0.942503442
12.660112            0.275781158     0.942650866   0.000224723402 -8.32945838e-05   0.000224723402 -8.32945838e-05      0.276863451     0.942380088
12.66014             0.276158656     0.942527495   0.000225045676 -8.35240914e-05   0.000225045676 -8.35240913e-05      0.277240281     0.942256487
12.660168            0.276536382     0.942403872   0.000225368478 -8.37542268e-05   0.000225368478 -8.37542268e-05      0.277617322      0.94213264
12.660196            0.276914337     0.942279998   0.000225691808 -8.39849937e-05   0.000225691808 -8.39849937e-05      0.277994591     0.942008542
12.660224            0.277292519     0.942155871   0.000226015666 -8.42163939e-05   0.000226015666 -8.42163939e-05      0.278372087     0.941884191
12.660252             0.27767093     0.942031492   0.000226340054 -8.44484291e-05   0.000226340054 -8.44484291e-05      0.278749811     0.941759589
12.66028              0.27804957     0.941906859   0.000226664972 -8.46811014e-05   0.000226664972 -8.46811014e-05      0.279127763     0.941634733
12.660308            0.278428438     0.941781973   0.000226990421 -8.49144126e-05   0.000226990421 -8.49144126e-05      0.279505943     0.941509625
12.660336            0.278807536     0.941656832   0.000227316402 -8.51483646e-05   0.000227316402 -8.51483646e-05      0.279884351     0.941384262
12.660364            0.279186862     0.941531437   0.000227642916 -8.53829593e-05   0.000227642916 -8.53829593e-05      0.280262988     0.941258646
12.660392            0.279566418     0.941405787   0.000227969964 -8.56181986e-05   0.000227969964 -8.56181986e-05      0.280641853     0.941132774
12.66042             0.279946204     0.941279881   0.000228297547 -8.58540844e-05   0.000228297547 -8.58540844e-05      0.281020947     0.941006648
12.660448            0.280326219     0.941153719   0.000228625665 -8.60906186e-05   0.000228625665 -8.60906186e-05      0.281400271     0.940880266
12.660476            0.280706464     0.941027301    0.00022895432 -8.63278032e-05    0.00022895432 -8.63278032e-05      0.281779823     0.940753628
12.660504            0.281086939     0.940900626   0.000229283513 -8.65656401e-05   0.000229283513 -8.65656401e-05      0.282159605     0.940626734
12.660532            0.281467645     0.940773693   0.000229613243 -8.68041311e-05   0.000229613243 -8.68041311e-05      0.282539616     0.940499583
12.66056             0.281848581     0.940646503   0.000229943513 -8.70432784e-05   0.000229943513 -8.70432784e-05      0.282919857     0.940372174
12.660588            0.282229748     0.940519054   0.000230274323 -8.72830837e-05   0.000230274323 -8.72830837e-05      0.283300328     0.940244507
12.660616            0.282611145     0.940391346   0.000230605674 -8.75235492e-05   0.000230605674 -8.75235492e-05      0.283681029     0.940116582
12.660644            0.282992774     0.940263379   0.000230937567 -8.77646766e-05   0.000230937567 -8.77646766e-05       0.28406196     0.939988398
12.660672            0.283374633     0.940135152   0.000231270003  -8.8006468e-05   0.000231270003  -8.8006468e-05      0.284443122     0.939859954
12.6607              0.283756725     0.940006665   0.000231602983 -8.82489255e-05   0.000231602983 -8.82489254e-05      0.284824515     0.939731251
12.660728            0.284139047     0.939877917   0.000231936507 -8.84920508e-05   0.000231936507 -8.84920508e-05      0.285206138     0.939602288
12.660756            0.284521602     0.939748908   0.000232270577 -8.87358461e-05   0.000232270577 -8.87358461e-05      0.285587993     0.939473063
12.660784            0.284904389     0.939619637   0.000232605194 -8.89803133e-05   0.000232605194 -8.89803133e-05      0.285970078     0.939343578
12.660812            0.285287407     0.939490104   0.000232940358 -8.92254545e-05   0.000232940358 -8.92254545e-05      0.286352395      0.93921383
12.66084             0.285670658     0.939360308    0.00023327607 -8.94712716e-05    0.00023327607 -8.94712716e-05      0.286734944     0.939083821
12.660868            0.286054142     0.939230249   0.000233612331 -8.97177666e-05   0.000233612331 -8.97177666e-05      0.287117725     0.938953549
12.660896            0.286437858     0.939099927   0.000233949143 -8.99649416e-05   0.000233949143 -8.99649416e-05      0.287500737     0.938823013
12.660924            0.286821807      0.93896934   0.000234286505 -9.02127986e-05   0.000234286505 -9.02127986e-05      0.287883982     0.938692214
12.660952             0.28720599     0.938838488    0.00023462442 -9.04613396e-05    0.00023462442 -9.04613396e-05      0.288267459     0.938561151
12.66098             0.287590405     0.938707372   0.000234962888 -9.07105667e-05   0.000234962888 -9.07105667e-05      0.288651169     0.938429823
12.661008            0.287975055      0.93857599   0.000235301909 -9.09604819e-05   0.000235301909 -9.09604819e-05      0.289035111      0.93829823
12.661036            0.288359937     0.938444342   0.000235641485 -9.12110873e-05   0.000235641485 -9.12110873e-05      0.289419286     0.938166371
12.661064            0.288745054     0.938312427   0.000235981617 -9.14623849e-05   0.000235981617 -9.14623849e-05      0.289803695     0.938034246
12.661092            0.289130405     0.938180245   0.000236322305 -9.17143768e-05   0.000236322305 -9.17143768e-05      0.290188337     0.937901855
12.66112              0.28951599     0.938047795   0.000236663551  -9.1967065e-05   0.000236663551  -9.1967065e-05      0.290573212     0.937769196
12.661148            0.289901809     0.937915078   0.000237005355 -9.22204517e-05   0.000237005355 -9.22204517e-05      0.290958321      0.93763627
12.661176            0.290287863     0.937782092   0.000237347719 -9.24745389e-05   0.000237347719 -9.24745389e-05      0.291343664     0.937503076
12.661204            0.290674152     0.937648837   0.000237690643 -9.27293288e-05   0.000237690643 -9.27293287e-05       0.29172924     0.937369613
12.661232            0.291060676     0.937515312   0.000238034128 -9.29848233e-05   0.000238034128 -9.29848233e-05      0.292115052     0.937235881
12.66126             0.291447434     0.937381517   0.000238378176 -9.32410247e-05   0.000238378176 -9.32410247e-05      0.292501097      0.93710188
12.661288            0.291834429     0.937247451   0.000238722786  -9.3497935e-05   0.000238722786  -9.3497935e-05      0.292887377     0.936967608
12.661316            0.292221659     0.937113115   0.000239067961 -9.37555564e-05   0.000239067961 -9.37555564e-05      0.293273892     0.936833066
12.661344            0.292609124     0.936978507     0.0002394137 -9.40138909e-05     0.0002394137 -9.40138909e-05      0.293660642     0.936698253
12.661372            0.292996826     0.936843627   0.000239760005 -9.42729408e-05   0.000239760005 -9.42729408e-05      0.294047627     0.936563168
12.6614              0.293384764     0.936708474   0.000240106877 -9.45327082e-05   0.000240106877 -9.45327082e-05      0.294434848     0.936427811
12.661428            0.293772938     0.936573048   0.000240454317 -9.47931951e-05   0.000240454317 -9.47931951e-05      0.294822304     0.936292181
12.661456            0.294161348     0.936437349   0.000240802326 -9.50544039e-05   0.000240802326 -9.50544038e-05      0.295209996     0.936156279
12.661484            0.294549995     0.936301375   0.000241150904 -9.53163365e-05   0.000241150904 -9.53163365e-05      0.295597924     0.936020103
12.661512            0.294938879     0.936165127   0.000241500053 -9.55789953e-05   0.000241500053 -9.55789952e-05      0.295986088     0.935883652
12.66154             0.295328001     0.936028604   0.000241849773 -9.58423823e-05   0.000241849773 -9.58423823e-05      0.296374488     0.935746927
12.661568            0.295717359     0.935891805   0.000242200066 -9.61064998e-05   0.000242200066 -9.61064997e-05      0.296763125     0.935609927
12.661596            0.296106955      0.93575473   0.000242550932 -9.63713499e-05   0.000242550932 -9.63713499e-05      0.297151998     0.935472651
12.661624            0.296496788     0.935617378   0.000242902373 -9.66369349e-05   0.000242902373 -9.66369349e-05      0.297541109     0.935335099
12.661652             0.29688686     0.935479749   0.000243254389 -9.69032569e-05   0.000243254389 -9.69032569e-05      0.297930456     0.935197271
12.66168             0.297277169     0.935341843   0.000243606981 -9.71703182e-05   0.000243606981 -9.71703182e-05      0.298320041     0.935059165
12.661708            0.297667717     0.935203658    0.00024396015 -9.74381209e-05    0.00024396015 -9.74381209e-05      0.298709863     0.934920781
12.661736            0.298058503     0.935065194   0.000244313898 -9.77066674e-05   0.000244313898 -9.77066674e-05      0.299099923      0.93478212
12.661764            0.298449527     0.934926451   0.000244668224 -9.79759598e-05   0.000244668224 -9.79759598e-05       0.29949022     0.934643179
12.661792            0.298840791     0.934787429   0.000245023131 -9.82460004e-05   0.000245023131 -9.82460004e-05      0.299880756     0.934503959
12.66182             0.299232293     0.934648126   0.000245378618 -9.85167915e-05   0.000245378618 -9.85167914e-05       0.30027153      0.93436446
12.661848            0.299624035     0.934508542   0.000245734688 -9.87883352e-05   0.000245734688 -9.87883352e-05      0.300662542      0.93422468
12.661876            0.300016016     0.934368677    0.00024609134 -9.90606338e-05    0.00024609134 -9.90606338e-05      0.301053793     0.934084619
12.661904            0.300408236      0.93422853   0.000246448576 -9.93336897e-05   0.000246448576 -9.93336897e-05      0.301445283     0.933944277
12.661932            0.300800696       0.9340881   0.000246806397 -9.96075051e-05   0.000246806397 -9.96075051e-05      0.301837012     0.933803653
12.66196             0.301193397     0.933947388   0.000247164804 -9.98820823e-05   0.000247164804 -9.98820823e-05       0.30222898     0.933662746
12.661988            0.301586337     0.933806392   0.000247523797 -0.000100157424   0.000247523798 -0.000100157424      0.302621187     0.933521557
12.662016            0.301979517     0.933665112   0.000247883379 -0.000100433531   0.000247883379 -0.000100433531      0.303013634     0.933380084
12.662044            0.302372938     0.933523548   0.000248243548 -0.000100710408   0.000248243548 -0.000100710408       0.30340632     0.933238327
12.662072              0.3027666     0.933381698   0.000248604308 -0.000100988055   0.000248604308 -0.000100988055      0.303799246     0.933096286
12.6621              0.303160503     0.933239563   0.000248965658 -0.000101266476   0.000248965658 -0.000101266476      0.304192413      0.93295396
12.662128            0.303554647     0.933097142   0.000249327599 -0.000101545672   0.000249327599 -0.000101545672       0.30458582     0.932811348
12.662156            0.303949032     0.932954434   0.000249690133 -0.000101825646   0.000249690133 -0.000101825646      0.304979467     0.932668449
12.662184            0.304343658     0.932811439   0.000250053261 -0.000102106401   0.000250053261 -0.000102106401      0.305373355     0.932525265
12.662212            0.304738526     0.932668156   0.000250416982 -0.000102387938   0.000250416982 -0.000102387938      0.305767484     0.932381792
12.66224             0.305133636     0.932524585     0.0002507813 -0.000102670261     0.0002507813 -0.000102670261      0.306161854     0.932238033
12.662268            0.305528988     0.932380725   0.000251146213  -0.00010295337   0.000251146213  -0.00010295337      0.306556466     0.932093984
12.662296            0.305924583     0.932236576   0.000251511724  -0.00010323727   0.000251511724  -0.00010323727      0.306951318     0.931949648
12.662324            0.306320419     0.932092137   0.000251877833 -0.000103521962   0.000251877833 -0.000103521962      0.307346413     0.931805021
12.662352            0.306716498     0.931947407   0.000252244542 -0.000103807448   0.000252244542 -0.000103807448      0.307741749     0.931660105
12.66238             0.307112821     0.931802386    0.00025261185 -0.000104093732    0.00025261185 -0.000104093732      0.308137327     0.931514898
12.662408            0.307509386     0.931657074    0.00025297976 -0.000104380815    0.00025297976 -0.000104380815      0.308533148       0.9313694
12.662436            0.307906194     0.931511469   0.000253348272 -0.000104668699   0.000253348272 -0.000104668699      0.308929211     0.931223611
12.662464            0.308303246     0.931365572   0.000253717387 -0.000104957388   0.000253717387 -0.000104957388      0.309325516      0.93107753
12.662492            0.308700541     0.931219382   0.000254087107 -0.000105246884   0.000254087107 -0.000105246884      0.309722064     0.930931156
12.66252              0.30909808     0.931072898   0.000254457431 -0.000105537188   0.000254457431 -0.000105537188      0.310118856     0.930784488
12.662548            0.309495863     0.930926119   0.000254828362 -0.000105828305   0.000254828362 -0.000105828305       0.31051589     0.930637527
12.662576             0.30989389     0.930779046   0.000255199899 -0.000106120235   0.000255199899 -0.000106120235      0.310913168     0.930490272
12.662604            0.310292161     0.930631677   0.000255572045 -0.000106412981   0.000255572045 -0.000106412981      0.311310689     0.930342722
12.662632            0.310690677     0.930484013   0.000255944799 -0.000106706547   0.000255944799 -0.000106706547      0.311708454     0.930194876
12.66266             0.311089438     0.930336051   0.000256318164 -0.000107000934   0.000256318164 -0.000107000934      0.312106463     0.930046734
12.662688            0.311488443     0.930187793    0.00025669214 -0.000107296145    0.00025669214 -0.000107296145      0.312504716     0.929898296
12.662716            0.311887694     0.930039237   0.000257066727 -0.000107592183   0.000257066727 -0.000107592183      0.312903214     0.929749561
12.662744             0.31228719     0.929890383   0.000257441928 -0.000107889049   0.000257441928 -0.000107889049      0.313301956     0.929600528
12.662772            0.312686931      0.92974123   0.000257817742 -0.000108186747   0.000257817742 -0.000108186747      0.313700943     0.929451196
12.6628              0.313086919     0.929591777   0.000258194172 -0.000108485279   0.000258194172 -0.000108485279      0.314100174     0.929301566
12.662828            0.313487152     0.929442025   0.000258571217 -0.000108784647   0.000258571217 -0.000108784647      0.314499651     0.929151637
12.662856            0.313887631     0.929291972   0.000258948879 -0.000109084854   0.000258948879 -0.000109084854      0.314899373     0.929001407
12.662884            0.314288356     0.929141618   0.000259327159 -0.000109385903   0.000259327159 -0.000109385903       0.31529934     0.928850878
12.662912            0.314689328     0.928990962   0.000259706058 -0.000109687796   0.000259706058 -0.000109687796      0.315699554     0.928700047
12.66294             0.315090547     0.928840004   0.000260085577 -0.000109990536   0.000260085577 -0.000109990536      0.316100013     0.928548914
12.662968            0.315492012     0.928688743   0.000260465717 -0.000110294125   0.000260465717 -0.000110294125      0.316500718     0.928397479
12.662996            0.315893724     0.928537179   0.000260846478 -0.000110598566   0.000260846478 -0.000110598566      0.316901669     0.928245742
12.663024            0.316295684     0.928385311   0.000261227862 -0.000110903862   0.000261227862 -0.000110903862      0.317302867     0.928093701
12.663052            0.316697891     0.928233139   0.000261609871 -0.000111210014   0.000261609871 -0.000111210014      0.317704311     0.927941356
12.66308             0.317100345     0.928080661   0.000261992504 -0.000111517026   0.000261992504 -0.000111517026      0.318106002     0.927788706
12.663108            0.317503048     0.927927878   0.000262375762 -0.000111824901   0.000262375763 -0.000111824901       0.31850794     0.927635752
12.663136            0.317905998     0.927774788   0.000262759648  -0.00011213364   0.000262759648  -0.00011213364      0.318910126     0.927482492
12.663164            0.318309197     0.927621392   0.000263144162 -0.000112443247   0.000263144162 -0.000112443247      0.319312558     0.927328925
12.663192            0.318712644     0.927467688   0.000263529304 -0.000112753724   0.000263529304 -0.000112753724      0.319715239     0.927175052
12.66322             0.319116339     0.927313676   0.000263915076 -0.000113065073   0.000263915076 -0.000113065073      0.320118167     0.927020871
12.663248            0.319520284     0.927159355   0.000264301479 -0.000113377299   0.000264301479 -0.000113377299      0.320521343     0.926866383
12.663276            0.319924477     0.927004725   0.000264688514 -0.000113690402   0.000264688514 -0.000113690402      0.320924767     0.926711585
12.663304            0.320328919     0.926849786   0.000265076181 -0.000114004386   0.000265076181 -0.000114004386       0.32132844     0.926556479
12.663332            0.320733611     0.926694536   0.000265464483 -0.000114319254   0.000265464483 -0.000114319254      0.321732361     0.926401062
12.66336             0.321138553     0.926538975   0.000265853419 -0.000114635008   0.000265853419 -0.000114635008      0.322136531     0.926245336
12.663388            0.321543744     0.926383103   0.000266242991 -0.000114951651   0.000266242991 -0.000114951651       0.32254095     0.926089298
12.663416            0.321949185     0.926226918     0.0002666332 -0.000115269186     0.0002666332 -0.000115269186      0.322945618     0.925932949
12.663444            0.322354876     0.926070421   0.000267024046 -0.000115587615   0.000267024046 -0.000115587615      0.323350535     0.925776288
12.663472            0.322760817      0.92591361   0.000267415532 -0.000115906941   0.000267415532 -0.000115906941      0.323755702     0.925619314
12.6635              0.323167009     0.925756485   0.000267807657 -0.000116227167   0.000267807657 -0.000116227167      0.324161118     0.925462026
12.663528            0.323573452     0.925599046   0.000268200423 -0.000116548295   0.000268200423 -0.000116548295      0.324566785     0.925304425
12.663556            0.323980145     0.925441292   0.000268593831 -0.000116870329   0.000268593832 -0.000116870329      0.324972701     0.925146509
12.663584             0.32438709     0.925283221   0.000268987882 -0.000117193271   0.000268987882 -0.000117193271      0.325378868     0.924988278
12.663612            0.324794286     0.925124835   0.000269382577 -0.000117517124   0.000269382577 -0.000117517124      0.325785285     0.924829731
12.66364             0.325201733     0.924966131   0.000269777917  -0.00011784189   0.000269777917  -0.00011784189      0.326191953     0.924670868
12.663668            0.325609432      0.92480711   0.000270173903 -0.000118167573   0.000270173903 -0.000118167573      0.326598872     0.924511688
12.663696            0.326017383     0.924647771   0.000270570535 -0.000118494175   0.000270570535 -0.000118494175      0.327006042     0.924352191
12.663724            0.326425586     0.924488113   0.000270967816   -0.0001188217   0.000270967816   -0.0001188217      0.327413463     0.924192375
12.663752            0.326834042     0.924328135   0.000271365745 -0.000119150149   0.000271365745 -0.000119150149      0.327821135      0.92403224
12.66378             0.327242749     0.924167837   0.000271764324 -0.000119479526   0.000271764325 -0.000119479526      0.328229059     0.923871786
12.663808             0.32765171     0.924007219   0.000272163555 -0.000119809833   0.000272163555 -0.000119809833      0.328637235     0.923711012
12.663836            0.328060923      0.92384628   0.000272563437 -0.000120141074   0.000272563437 -0.000120141074      0.329045663     0.923549918
12.663864            0.328470389     0.923685018   0.000272963973 -0.000120473251   0.000272963973 -0.000120473251      0.329454343     0.923388502
12.663892            0.328880108     0.923523434   0.000273365162 -0.000120806368   0.000273365162 -0.000120806368      0.329863276     0.923226764
12.66392             0.329290081     0.923361527   0.000273767006 -0.000121140426   0.000273767006 -0.000121140426      0.330272461     0.923064704
12.663948            0.329700307     0.923199297   0.000274169507  -0.00012147543   0.000274169507  -0.00012147543      0.330681899     0.922902321
12.663976            0.330110787     0.923036742   0.000274572664 -0.000121811381   0.000274572664 -0.000121811381       0.33109159     0.922739614
12.664004            0.330521522     0.922873862    0.00027497648 -0.000122148283    0.00027497648 -0.000122148283      0.331501534     0.922576582
12.664032             0.33093251     0.922710656   0.000275380955 -0.000122486139   0.000275380955 -0.000122486139      0.331911732     0.922413226
12.66406             0.331343753     0.922547124    0.00027578609 -0.000122824951    0.00027578609 -0.000122824951      0.332322183     0.922249544
12.664088             0.33175525     0.922383265   0.000276191886 -0.000123164723   0.000276191886 -0.000123164723      0.332732887     0.922085536
12.664116            0.332167002     0.922219079   0.000276598344 -0.000123505457   0.000276598344 -0.000123505457      0.333143846     0.921921201
12.664144            0.332579009     0.922054564   0.000277005465 -0.000123847157   0.000277005465 -0.000123847157      0.333555059     0.921756539
12.664172            0.332991271     0.921889721   0.000277413251 -0.000124189825   0.000277413251 -0.000124189825      0.333966526     0.921591548
12.6642              0.333403789     0.921724548   0.000277821702 -0.000124533465   0.000277821702 -0.000124533465      0.334378248     0.921426229
12.664228            0.333816562     0.921559045   0.000278230819 -0.000124878079   0.000278230819 -0.000124878079      0.334790224      0.92126058
12.664256             0.33422959     0.921393212   0.000278640603  -0.00012522367   0.000278640603  -0.00012522367      0.335202455     0.921094601
12.664284            0.334642875     0.921227047   0.000279051056 -0.000125570242   0.000279051056 -0.000125570242      0.335614942     0.920928292
12.664312            0.335056416      0.92106055   0.000279462178 -0.000125917797   0.000279462178 -0.000125917797      0.336027684     0.920761651
12.66434             0.335470213     0.920893721   0.000279873971 -0.000126266339   0.000279873971 -0.000126266339      0.336440681     0.920594679
12.664368            0.335884267     0.920726558   0.000280286435  -0.00012661587   0.000280286435  -0.00012661587      0.336853934     0.920427374
12.664396            0.336298577     0.920559062   0.000280699571 -0.000126966394   0.000280699571 -0.000126966394      0.337267442     0.920259735
12.664424            0.336713144     0.920391231   0.000281113381 -0.000127317913   0.000281113381 -0.000127317913      0.337681207     0.920091763
12.664452            0.337127968     0.920223064   0.000281527865 -0.000127670431   0.000281527865 -0.000127670431      0.338095228     0.919923456
12.66448              0.33754305     0.920054562   0.000281943025 -0.000128023951   0.000281943025 -0.000128023951      0.338509506     0.919754814
12.664508            0.337958389     0.919885724   0.000282358862 -0.000128378475   0.000282358862 -0.000128378475       0.33892404     0.919585836
12.664536            0.338373986     0.919716548   0.000282775376 -0.000128734007   0.000282775376 -0.000128734007      0.339338831     0.919416522
12.664564             0.33878984     0.919547034   0.000283192568 -0.000129090551   0.000283192568 -0.000129090551      0.339753879     0.919246871
12.664592            0.339205953     0.919377182   0.000283610441 -0.000129448109   0.000283610441 -0.000129448109      0.340169184     0.919076882
12.66462             0.339622324     0.919206991   0.000284028993 -0.000129806684   0.000284028994 -0.000129806684      0.340584746     0.918906554
12.664648            0.340038953      0.91903646   0.000284448228 -0.000130166279   0.000284448228 -0.000130166279      0.341000567     0.918735887
12.664676            0.340455841     0.918865589   0.000284868146 -0.000130526898   0.000284868146 -0.000130526898      0.341416645     0.918564881
12.664704            0.340872988     0.918694376   0.000285288747 -0.000130888544   0.000285288747 -0.000130888544      0.341832981     0.918393534
12.664732            0.341290393     0.918522822   0.000285710033  -0.00013125122   0.000285710033  -0.00013125122      0.342249575     0.918221846
12.66476             0.341708058     0.918350925   0.000286132004 -0.000131614928   0.000286132004 -0.000131614928      0.342666427     0.918049817
12.664788            0.342125983     0.918178685   0.000286554663 -0.000131979674   0.000286554663 -0.000131979674      0.343083538     0.917877445
12.664816            0.342544167     0.918006101    0.00028697801 -0.000132345458    0.00028697801 -0.000132345458      0.343500908     0.917704729
12.664844            0.342962611     0.917833173   0.000287402045 -0.000132712286   0.000287402045 -0.000132712286      0.343918537     0.917531671
12.664872            0.343381314       0.9176599   0.000287826771 -0.000133080159   0.000287826771 -0.000133080159      0.344336425     0.917358267
12.6649              0.343800278     0.917486281   0.000288252187 -0.000133449082   0.000288252187 -0.000133449082      0.344754572     0.917184519
12.664928            0.344219502     0.917312315   0.000288678296 -0.000133819057   0.000288678296 -0.000133819057      0.345172979     0.917010425
12.664956            0.344638987     0.917138003   0.000289105098 -0.000134190088   0.000289105098 -0.000134190088      0.345591646     0.916835984
12.664984            0.345058733     0.916963342   0.000289532594 -0.000134562178   0.000289532594 -0.000134562178      0.346010572     0.916661197
12.665012            0.345478739     0.916788333   0.000289960785  -0.00013493533   0.000289960785  -0.00013493533      0.346429759     0.916486061
12.66504             0.345899007     0.916612975   0.000290389672 -0.000135309547   0.000290389672 -0.000135309547      0.346849205     0.916310577
12.665068            0.346319536     0.916437267   0.000290819256 -0.000135684834   0.000290819256 -0.000135684834      0.347268913     0.916134744
12.665096            0.346740327     0.916261208   0.000291249539 -0.000136061193   0.000291249539 -0.000136061193      0.347688881     0.915958562
12.665124            0.347161379     0.916084798   0.000291680521 -0.000136438627   0.000291680521 -0.000136438627       0.34810911     0.915782028
12.665152            0.347582693     0.915908037   0.000292112204  -0.00013681714   0.000292112204  -0.00013681714        0.3485296     0.915605144
12.66518             0.348004269     0.915730922   0.000292544587 -0.000137196736   0.000292544587 -0.000137196736      0.348950351     0.915427907
12.665208            0.348426108     0.915553454   0.000292977674 -0.000137577417   0.000292977674 -0.000137577417      0.349371363     0.915250318
12.665236            0.348848209     0.915375632   0.000293411463 -0.000137959187   0.000293411463 -0.000137959187      0.349792638     0.915072376
12.665264            0.349270573     0.915197456   0.000293845958 -0.000138342049   0.000293845958 -0.000138342049      0.350214174      0.91489408
12.665292            0.349693199     0.915018924   0.000294281158 -0.000138726007   0.000294281158 -0.000138726007      0.350635972     0.914715429
12.66532             0.350116089     0.914840036   0.000294717064 -0.000139111064   0.000294717064 -0.000139111064      0.351058032     0.914536422
12.665348            0.350539242     0.914660791   0.000295153678 -0.000139497224   0.000295153678 -0.000139497224      0.351480355      0.91435706
12.665376            0.350962658     0.914481189   0.000295591001  -0.00013988449   0.000295591001  -0.00013988449       0.35190294     0.914177341
12.665404            0.351386338     0.914301228   0.000296029033 -0.000140272865   0.000296029033 -0.000140272865      0.352325788     0.913997264