! This file was generated by CST Filter Designer 3D
! _________________________________________________
! Date:                         23.07.2025 13:03:34

# MHZ S RI R 50
!              Frequency                 Re(S11)                 Im(S11)                 Re(S21)                 Im(S21)                 Re(S12)                 Im(S12)                 Re(S22)                 Im(S22)
                   12400       -0.96419747964657       0.260150073233704   -3.56334418495417e-06    8.09999969458594e-07   -3.56334418495417e-06    8.09999969458594e-07       -0.96419747964657       0.260150073233704
                 12400.4      -0.964056406712742       0.260652225607025   -3.59162065122152e-06    8.19024856850942e-07   -3.59162065122152e-06    8.19024856850942e-07      -0.964056406712742       0.260652225607025
                 12400.8      -0.963914503805217        0.26115628010991   -3.62017282496126e-06    8.28164888094863e-07   -3.62017282496126e-06    8.28164888094863e-07      -0.963914503805217        0.26115628010991
                 12401.2      -0.963771764416007       0.261662247422472   -3.64900389311592e-06    8.37421734799651e-07   -3.64900389311592e-06    8.37421734799651e-07      -0.963771764416007       0.261662247422472
                 12401.6      -0.963628181973308       0.262170138303659   -3.67811708516242e-06    8.46797095901003e-07   -3.67811708516242e-06    8.46797095901003e-07      -0.963628181973308       0.262170138303659
                   12402      -0.963483749840754       0.262679963591962   -3.70751567375365e-06    8.56292698158653e-07   -3.70751567375365e-06    8.56292698158653e-07      -0.963483749840754       0.262679963591962
                 12402.4      -0.963338461316648       0.263191734206148   -3.73720297537203e-06    8.65910296664382e-07   -3.73720297537203e-06    8.65910296664382e-07      -0.963338461316648       0.263191734206148
                 12402.8      -0.963192309633198       0.263705461145974   -3.76718235099286e-06    8.75651675359864e-07   -3.76718235099286e-06    8.75651675359864e-07      -0.963192309633198       0.263705461145974
                 12403.2      -0.963045287955726       0.264221155492943   -3.79745720676008e-06    8.85518647565408e-07   -3.79745720676008e-06    8.85518647565408e-07      -0.963045287955726       0.264221155492943
                 12403.6      -0.962897389381881       0.264738828411038   -3.82803099467238e-06    8.95513056518992e-07   -3.82803099467238e-06    8.95513056518992e-07      -0.962897389381881       0.264738828411038
                   12404       -0.96274860694083       0.265258491147472   -3.85890721328115e-06    9.05636775926351e-07   -3.85890721328115e-06    9.05636775926351e-07       -0.96274860694083       0.265258491147472
                 12404.4      -0.962598933592445       0.265780155033465   -3.89008940840107e-06    9.15891710522465e-07   -3.89008940840107e-06    9.15891710522465e-07      -0.962598933592445       0.265780155033465
                 12404.8      -0.962448362226475       0.266303831484999   -3.92158117383151e-06    9.26279796644076e-07   -3.92158117383151e-06    9.26279796644076e-07      -0.962448362226475       0.266303831484999
                 12405.2      -0.962296885661704       0.266829532003608   -3.95338615209144e-06    9.36803002814286e-07   -3.95338615209144e-06    9.36803002814286e-07      -0.962296885661704       0.266829532003608
                 12405.6      -0.962144496645107       0.267357268177153   -3.98550803516531e-06    9.47463330338578e-07   -3.98550803516531e-06    9.47463330338578e-07      -0.962144496645107       0.267357268177153
                   12406      -0.961991187850981       0.267887051680627   -4.01795056526344e-06    9.58262813913624e-07   -4.01795056526344e-06    9.58262813913624e-07      -0.961991187850981       0.267887051680627
                 12406.4      -0.961836951880077       0.268418894276949    -4.0507175355936e-06    9.69203522247982e-07    -4.0507175355936e-06    9.69203522247982e-07      -0.961836951880077       0.268418894276949
                 12406.8      -0.961681781258706       0.268952807817791   -4.08381279114773e-06    9.80287558696179e-07   -4.08381279114773e-06    9.80287558696179e-07      -0.961681781258706       0.268952807817791
                 12407.2      -0.961525668437848       0.269488804244376   -4.11724022949967e-06    9.91517061905032e-07   -4.11724022949967e-06    9.91517061905032e-07      -0.961525668437848       0.269488804244376
                 12407.6      -0.961368605792233       0.270026895588336   -4.15100380161954e-06    1.00289420647426e-06   -4.15100380161954e-06    1.00289420647426e-06      -0.961368605792233       0.270026895588336
                   12408      -0.961210585619419       0.270567093972528    -4.1851075126992e-06    1.01442120362978e-06    -4.1851075126992e-06    1.01442120362978e-06      -0.961210585619419       0.270567093972528
                 12408.4      -0.961051600138857       0.271109411611895   -4.21955542299409e-06    1.02610030191168e-06   -4.21955542299409e-06    1.02610030191168e-06      -0.961051600138857       0.271109411611895
                 12408.8      -0.960891641490935       0.271653860814311   -4.25435164867798e-06    1.03793378787587e-06   -4.25435164867798e-06    1.03793378787587e-06      -0.960891641490935       0.271653860814311
                 12409.2      -0.960730701736016       0.272200453981465   -4.28950036271415e-06    1.04992398681093e-06   -4.28950036271415e-06    1.04992398681093e-06      -0.960730701736016       0.272200453981465
                 12409.6      -0.960568772853458       0.272749203609722   -4.32500579574009e-06    1.06207326346928e-06   -4.32500579574009e-06    1.06207326346928e-06      -0.960568772853458       0.272749203609722
                   12410      -0.960405846740625       0.273300122291016   -4.36087223696827e-06    1.07438402281396e-06   -4.36087223696827e-06    1.07438402281396e-06      -0.960405846740625       0.273300122291016
                 12410.4      -0.960241915211876       0.273853222713742   -4.39710403510235e-06    1.08685871078085e-06   -4.39710403510235e-06    1.08685871078085e-06      -0.960241915211876       0.273853222713742
                 12410.8      -0.960076969997548       0.274408517663664   -4.43370559926973e-06    1.09949981505699e-06   -4.43370559926973e-06    1.09949981505699e-06      -0.960076969997548       0.274408517663664
                 12411.2      -0.959911002742916       0.274966020024827   -4.47068139996941e-06    1.11230986587502e-06   -4.47068139996941e-06    1.11230986587502e-06      -0.959911002742916       0.274966020024827
                 12411.6      -0.959744005007148       0.275525742780482   -4.50803597003733e-06    1.12529143682452e-06   -4.50803597003733e-06    1.12529143682452e-06      -0.959744005007148       0.275525742780482
                   12412      -0.959575968262231       0.276087699014029   -4.54577390562826e-06    1.13844714568039e-06   -4.54577390562826e-06    1.13844714568039e-06      -0.959575968262231       0.276087699014029
                 12412.4        -0.9594068838919       0.276651901909949   -4.58389986721425e-06    1.15177965524846e-06   -4.58389986721425e-06    1.15177965524846e-06        -0.9594068838919       0.276651901909949
                 12412.8      -0.959236743190535        0.27721836475477   -4.62241858060146e-06    1.16529167422937e-06   -4.62241858060146e-06    1.16529167422937e-06      -0.959236743190535        0.27721836475477
                 12413.2      -0.959065537362047       0.277787100938029   -4.66133483796454e-06    1.17898595810051e-06   -4.66133483796454e-06    1.17898595810051e-06      -0.959065537362047       0.277787100938029
                 12413.6      -0.958893257518756       0.278358123953251   -4.70065349889869e-06    1.19286531001664e-06   -4.70065349889869e-06    1.19286531001664e-06      -0.958893257518756       0.278358123953251
                   12414      -0.958719894680235       0.278931447398941   -4.74037949149121e-06    1.20693258172991e-06   -4.74037949149121e-06    1.20693258172991e-06      -0.958719894680235       0.278931447398941
                 12414.4      -0.958545439772161       0.279507084979571   -4.78051781341072e-06     1.2211906745291e-06   -4.78051781341072e-06     1.2211906745291e-06      -0.958545439772161       0.279507084979571
                 12414.8      -0.958369883625124       0.280085050506603   -4.82107353301684e-06    1.23564254019931e-06   -4.82107353301684e-06    1.23564254019931e-06      -0.958369883625124       0.280085050506603
                 12415.2      -0.958193216973439       0.280665357899502   -4.86205179048841e-06    1.25029118200185e-06   -4.86205179048841e-06    1.25029118200185e-06      -0.958193216973439       0.280665357899502
                 12415.6      -0.958015430453928       0.281248021186768   -4.90345779897247e-06    1.26513965567534e-06   -4.90345779897247e-06    1.26513965567534e-06      -0.958015430453928       0.281248021186768
                   12416      -0.957836514604688       0.281833054506991   -4.94529684575365e-06    1.28019107045836e-06   -4.94529684575365e-06    1.28019107045836e-06      -0.957836514604688       0.281833054506991
                 12416.4      -0.957656459863843       0.282420472109892   -4.98757429344334e-06    1.29544859013377e-06   -4.98757429344334e-06    1.29544859013377e-06      -0.957656459863843       0.282420472109892
                 12416.8      -0.957475256568277       0.283010288357396   -5.03029558119107e-06    1.31091543409583e-06   -5.03029558119107e-06    1.31091543409583e-06      -0.957475256568277       0.283010288357396
                 12417.2      -0.957292894952341        0.28360251772472   -5.07346622591769e-06    1.32659487844061e-06   -5.07346622591769e-06    1.32659487844061e-06      -0.957292894952341        0.28360251772472
                 12417.6      -0.957109365146552       0.284197174801449   -5.11709182356885e-06    1.34249025707918e-06   -5.11709182356885e-06    1.34249025707918e-06      -0.957109365146552       0.284197174801449
                   12418      -0.956924657176267       0.284794274292652   -5.16117805039322e-06    1.35860496287599e-06   -5.16117805039322e-06    1.35860496287599e-06      -0.956924657176267       0.284794274292652
                 12418.4      -0.956738760960333       0.285393831019991   -5.20573066424165e-06    1.37494244881114e-06   -5.20573066424165e-06    1.37494244881114e-06      -0.956738760960333       0.285393831019991
                 12418.8      -0.956551666309727       0.285995859922854   -5.25075550589086e-06    1.39150622916848e-06   -5.25075550589086e-06    1.39150622916848e-06      -0.956551666309727       0.285995859922854
                 12419.2      -0.956363362926165       0.286600376059492   -5.29625850039049e-06    1.40829988074947e-06   -5.29625850039049e-06    1.40829988074947e-06      -0.956363362926165       0.286600376059492
                 12419.6        -0.9561738404007        0.28720739460818   -5.34224565843427e-06    1.42532704411352e-06   -5.34224565843427e-06    1.42532704411352e-06        -0.9561738404007        0.28720739460818
                   12420      -0.955983088212291       0.287816930868372   -5.38872307775587e-06    1.44259142484553e-06   -5.38872307775587e-06    1.44259142484553e-06      -0.955983088212291       0.287816930868372
                 12420.4      -0.955791095726352       0.288429000261898   -5.43569694455087e-06    1.46009679485155e-06   -5.43569694455087e-06    1.46009679485155e-06      -0.955791095726352       0.288429000261898
                 12420.8      -0.955597852193286       0.289043618334139   -5.48317353492248e-06     1.4778469936823e-06   -5.48317353492248e-06     1.4778469936823e-06      -0.955597852193286       0.289043618334139
                 12421.2      -0.955403346746983       0.289660800755254   -5.53115921635631e-06    1.49584592988687e-06   -5.53115921635631e-06    1.49584592988687e-06      -0.955403346746983       0.289660800755254
                 12421.6      -0.955207568403314       0.290280563321382    -5.5796604492185e-06    1.51409758239505e-06    -5.5796604492185e-06    1.51409758239505e-06      -0.955207568403314       0.290280563321382
                   12422      -0.955010506058585       0.290902921955887   -5.62868378828412e-06    1.53260600193144e-06   -5.62868378828412e-06    1.53260600193144e-06      -0.955010506058585       0.290902921955887
                 12422.4      -0.954812148487972       0.291527892710611   -5.67823588429187e-06    1.55137531246041e-06   -5.67823588429187e-06    1.55137531246041e-06      -0.954812148487972       0.291527892710611
                 12422.8      -0.954612484343942        0.29215549176712   -5.72832348552654e-06    1.57040971266281e-06   -5.72832348552654e-06    1.57040971266281e-06      -0.954612484343942        0.29215549176712
                 12423.2      -0.954411502154637          0.292785735438   -5.77895343943245e-06    1.58971347744654e-06   -5.77895343943245e-06    1.58971347744654e-06      -0.954411502154637          0.292785735438
                 12423.6      -0.954209190322237        0.29341864016814   -5.83013269425445e-06    1.60929095948996e-06   -5.83013269425445e-06    1.60929095948996e-06      -0.954209190322237        0.29341864016814
                   12424      -0.954005537121305       0.294054222536038   -5.88186830070953e-06    1.62914659082015e-06   -5.88186830070953e-06    1.62914659082015e-06      -0.954005537121305       0.294054222536038
                 12424.4      -0.953800530697097       0.294692499255122   -5.93416741368934e-06    1.64928488442653e-06   -5.93416741368934e-06    1.64928488442653e-06      -0.953800530697097       0.294692499255122
                 12424.8      -0.953594159063848       0.295333487175092   -5.98703729399438e-06    1.66971043591096e-06   -5.98703729399438e-06    1.66971043591096e-06      -0.953594159063848       0.295333487175092
                 12425.2      -0.953386410103036       0.295977203283268   -6.04048531009907e-06    1.69042792517454e-06   -6.04048531009907e-06    1.69042792517454e-06      -0.953386410103036       0.295977203283268
                 12425.6      -0.953177271561619       0.296623664705953   -6.09451893994964e-06    1.71144211814259e-06   -6.09451893994964e-06    1.71144211814259e-06      -0.953177271561619       0.296623664705953
                   12426      -0.952966731050235       0.297272888709826   -6.14914577279654e-06     1.7327578685291e-06   -6.14914577279654e-06     1.7327578685291e-06      -0.952966731050235       0.297272888709826
                 12426.4      -0.952754776041384       0.297924892703339   -6.20437351105902e-06    1.75438011964053e-06   -6.20437351105902e-06    1.75438011964053e-06      -0.952754776041384       0.297924892703339
                 12426.8      -0.952541393867582       0.298579694238119   -6.26020997222421e-06    1.77631390622048e-06   -6.26020997222421e-06    1.77631390622048e-06      -0.952541393867582       0.298579694238119
                 12427.2      -0.952326571719479       0.299237311010417   -6.31666309078343e-06    1.79856435633719e-06   -6.31666309078343e-06    1.79856435633719e-06      -0.952326571719479       0.299237311010417
                 12427.6      -0.952110296643951       0.299897760862547   -6.37374092020239e-06    1.82113669331313e-06   -6.37374092020239e-06    1.82113669331313e-06      -0.952110296643951       0.299897760862547
                   12428      -0.951892555542165       0.300561061784352    -6.4314516349291e-06    1.84403623769923e-06    -6.4314516349291e-06    1.84403623769923e-06      -0.951892555542165       0.300561061784352
                 12428.4      -0.951673335167607       0.301227231914685   -6.48980353243852e-06    1.86726840929386e-06   -6.48980353243852e-06    1.86726840929386e-06      -0.951673335167607       0.301227231914685
                 12428.8      -0.951452622124086       0.301896289542905   -6.54880503531618e-06    1.89083872920861e-06   -6.54880503531618e-06    1.89083872920861e-06      -0.951452622124086       0.301896289542905
                 12429.2      -0.951230402863704       0.302568253110403    -6.6084646933804e-06    1.91475282198131e-06    -6.6084646933804e-06    1.91475282198131e-06      -0.951230402863704       0.302568253110403
                 12429.6      -0.951006663684788       0.303243141212124   -6.66879118584403e-06     1.9390164177377e-06   -6.66879118584403e-06     1.9390164177377e-06      -0.951006663684788       0.303243141212124
                   12430      -0.950781390729799       0.303920972598122   -6.72979332351644e-06    1.96363535440288e-06   -6.72979332351644e-06    1.96363535440288e-06      -0.950781390729799       0.303920972598122
                 12430.4        -0.9505545699832       0.304601766175137   -6.79148005104859e-06    1.98861557996458e-06   -6.79148005104859e-06    1.98861557996458e-06        -0.9505545699832       0.304601766175137
                 12430.8      -0.950326187269296        0.30528554100817   -6.85386044921776e-06    2.01396315478796e-06   -6.85386044921776e-06    2.01396315478796e-06      -0.950326187269296        0.30528554100817
                 12431.2      -0.950096228250034       0.305972316322098   -6.91694373725735e-06    2.03968425398492e-06   -6.91694373725735e-06    2.03968425398492e-06      -0.950096228250034       0.305972316322098
                 12431.6      -0.949864678422771       0.306662111503294   -6.98073927522955e-06    2.06578516983823e-06   -6.98073927522955e-06    2.06578516983823e-06      -0.949864678422771       0.306662111503294
                   12432      -0.949631523118003       0.307354946101275   -7.04525656644372e-06     2.0922723142825e-06   -7.04525656644372e-06     2.0922723142825e-06      -0.949631523118003       0.307354946101275
                 12432.4      -0.949396747497064       0.308050839830367   -7.11050525991992e-06    2.11915222144304e-06   -7.11050525991992e-06    2.11915222144304e-06      -0.949396747497064       0.308050839830367
                 12432.8      -0.949160336549779       0.308749812571378   -7.17649515289885e-06    2.14643155023396e-06   -7.17649515289885e-06    2.14643155023396e-06      -0.949160336549779       0.308749812571378
                 12433.2      -0.948922275092091       0.309451884373307   -7.24323619340032e-06     2.1741170870178e-06   -7.24323619340032e-06     2.1741170870178e-06      -0.948922275092091       0.309451884373307
                 12433.6      -0.948682547763633       0.310157075455064   -7.31073848282945e-06    2.20221574832736e-06   -7.31073848282945e-06    2.20221574832736e-06      -0.948682547763633       0.310157075455064
                   12434      -0.948441139025275       0.310865406207218   -7.37901227863402e-06    2.23073458365228e-06   -7.37901227863402e-06    2.23073458365228e-06      -0.948441139025275       0.310865406207218
                 12434.4      -0.948198033156628       0.311576897193748   -7.44806799701005e-06    2.25968077829062e-06   -7.44806799701005e-06    2.25968077829062e-06      -0.948198033156628       0.311576897193748
                 12434.8      -0.947953214253498       0.312291569153837   -7.51791621566129e-06    2.28906165626891e-06   -7.51791621566129e-06    2.28906165626891e-06      -0.947953214253498       0.312291569153837
                 12435.2      -0.947706666225314       0.313009443003674   -7.58856767661084e-06    2.31888468333122e-06   -7.58856767661084e-06    2.31888468333122e-06      -0.947706666225314       0.313009443003674
                 12435.6      -0.947458372792499       0.313730539838274   -7.66003328906559e-06    2.34915746999899e-06   -7.66003328906559e-06    2.34915746999899e-06      -0.947458372792499       0.313730539838274
                   12436      -0.947208317483809       0.314454880933331   -7.73232413233736e-06    2.37988777470457e-06   -7.73232413233736e-06    2.37988777470457e-06      -0.947208317483809       0.314454880933331
                 12436.4      -0.946956483633617       0.315182487747088   -7.80545145881901e-06    2.41108350699921e-06   -7.80545145881901e-06    2.41108350699921e-06      -0.946956483633617       0.315182487747088
                 12436.8      -0.946702854379167       0.315913381922217   -7.87942669701738e-06    2.44275273083767e-06   -7.87942669701738e-06    2.44275273083767e-06      -0.946702854379167       0.315913381922217
                 12437.2      -0.946447412657767        0.31664758528775   -7.95426145464701e-06    2.47490366794275e-06   -7.95426145464701e-06    2.47490366794275e-06      -0.946447412657767        0.31664758528775
                 12437.6      -0.946190141203946       0.317385119860999   -8.02996752178035e-06     2.5075447012494e-06   -8.02996752178035e-06     2.5075447012494e-06      -0.946190141203946       0.317385119860999
                   12438       -0.94593102254656       0.318126007849521   -8.10655687406125e-06    2.54068437843294e-06   -8.10655687406125e-06    2.54068437843294e-06       -0.94593102254656       0.318126007849521
                 12438.4       -0.94567003900585       0.318870271653099   -8.18404167597954e-06    2.57433141552209e-06   -8.18404167597954e-06    2.57433141552209e-06       -0.94567003900585       0.318870271653099
                 12438.8      -0.945407172690448       0.319617933865755   -8.26243428421034e-06    2.60849470060008e-06   -8.26243428421034e-06    2.60849470060008e-06      -0.945407172690448       0.319617933865755
                 12439.2      -0.945142405494345       0.320369017277758   -8.34174725101506e-06     2.6431832975943e-06   -8.34174725101506e-06     2.6431832975943e-06      -0.945142405494345       0.320369017277758
                 12439.6      -0.944875719093788       0.321123544877703   -8.42199332771341e-06    2.67840645016028e-06   -8.42199332771341e-06    2.67840645016028e-06      -0.944875719093788       0.321123544877703
                   12440      -0.944607094944139       0.321881539854577   -8.50318546821895e-06    2.71417358565869e-06   -8.50318546821895e-06    2.71417358565869e-06      -0.944607094944139       0.321881539854577
                 12440.4      -0.944336514276686        0.32264302559985   -8.58533683264402e-06     2.7504943192297e-06   -8.58533683264402e-06     2.7504943192297e-06      -0.944336514276686        0.32264302559985
                 12440.8      -0.944063958095378       0.323408025709626   -8.66846079097809e-06    2.78737845796864e-06   -8.66846079097809e-06    2.78737845796864e-06      -0.944063958095378       0.323408025709626
                 12441.2      -0.943789407173533       0.324176563986773    -8.7525709268339e-06    2.82483600520224e-06    -8.7525709268339e-06    2.82483600520224e-06      -0.943789407173533       0.324176563986773
                 12441.6      -0.943512842050464       0.324948664443117   -8.83768104127018e-06    2.86287716487169e-06   -8.83768104127018e-06    2.86287716487169e-06      -0.943512842050464       0.324948664443117
                   12442      -0.943234243028068       0.325724351301634   -8.92380515668718e-06    2.90151234602281e-06   -8.92380515668718e-06    2.90151234602281e-06      -0.943234243028068       0.325724351301634
                 12442.4      -0.942953590167342       0.326503648998692   -9.01095752080042e-06    2.94075216740813e-06   -9.01095752080042e-06    2.94075216740813e-06      -0.942953590167342       0.326503648998692
                 12442.8      -0.942670863284851       0.327286582186297   -9.09915261069079e-06    2.98060746220211e-06   -9.09915261069079e-06    2.98060746220211e-06      -0.942670863284851       0.327286582186297
                 12443.2      -0.942386041949124       0.328073175734384    -9.1884051369357e-06     3.0210892828342e-06    -9.1884051369357e-06     3.0210892828342e-06      -0.942386041949124       0.328073175734384
                 12443.6      -0.942099105477001        0.32886345473313   -9.27873004782188e-06    3.06220890594229e-06   -9.27873004782188e-06    3.06220890594229e-06      -0.942099105477001        0.32886345473313
                   12444      -0.941810032929906       0.329657444495276    -9.3701425336386e-06    3.10397783744855e-06    -9.3701425336386e-06    3.10397783744855e-06      -0.941810032929906       0.329657444495276
                 12444.4      -0.941518803110057       0.330455170558523     -9.462658031061e-06    3.14640781776462e-06     -9.462658031061e-06    3.14640781776462e-06      -0.941518803110057       0.330455170558523
                 12444.8      -0.941225394556621       0.331256658687896   -9.55629222761382e-06    3.18951082712443e-06   -9.55629222761382e-06    3.18951082712443e-06      -0.941225394556621       0.331256658687896
                 12445.2      -0.940929785541791       0.332061934878186   -9.65106106622834e-06    3.23329909105317e-06   -9.65106106622834e-06    3.23329909105317e-06      -0.940929785541791       0.332061934878186
                 12445.6      -0.940631954066795       0.332871025356403   -9.74698074988896e-06    3.27778508597374e-06   -9.74698074988896e-06    3.27778508597374e-06      -0.940631954066795       0.332871025356403
                   12446      -0.940331877857843       0.333683956584244   -9.84406774636888e-06    3.32298154495316e-06   -9.84406774636888e-06    3.32298154495316e-06      -0.940331877857843       0.333683956584244
                 12446.4      -0.940029534361997       0.334500755260617   -9.94233879306466e-06    3.36890146359664e-06   -9.94233879306466e-06    3.36890146359664e-06      -0.940029534361997       0.334500755260617
                 12446.8       -0.93972490074297       0.335321448324184   -1.00418109019242e-05     3.4155581060898e-06   -1.00418109019242e-05     3.4155581060898e-06       -0.93972490074297       0.335321448324184
                 12447.2      -0.939417953876856       0.336146062955919   -1.01425013644726e-05    3.46296501139433e-06   -1.01425013644726e-05    3.46296501139433e-06      -0.939417953876856       0.336146062955919
                 12447.6      -0.939108670347774       0.336974626581723   -1.02444277569406e-05    3.51113599960253e-06   -1.02444277569406e-05    3.51113599960253e-06      -0.939108670347774       0.336974626581723
                   12448      -0.938797026443445       0.337807166875062   -1.03476079454946e-05    3.56008517845392e-06   -1.03476079454946e-05    3.56008517845392e-06      -0.938797026443445       0.337807166875062
                 12448.4      -0.938482998150691       0.338643711759608   -1.04520600915687e-05    3.60982695001712e-06   -1.04520600915687e-05    3.60982695001712e-06      -0.938482998150691       0.338643711759608
                 12448.8       -0.93816656115084       0.339484289411976     -1.055780265731e-05    3.66037601754666e-06     -1.055780265731e-05    3.66037601754666e-06       -0.93816656115084       0.339484289411976
                 12449.2      -0.937847690815073       0.340328928264415   -1.06648544111256e-05     3.7117473925122e-06   -1.06648544111256e-05     3.7117473925122e-06      -0.937847690815073       0.340328928264415
                 12449.6      -0.937526362199664       0.341177657007596   -1.07732344333465e-05    3.76395640181196e-06   -1.07732344333465e-05    3.76395640181196e-06      -0.937526362199664       0.341177657007596
                   12450      -0.937202550041154       0.342030504593391   -1.08829621220022e-05    3.81701869517094e-06   -1.08829621220022e-05    3.81701869517094e-06      -0.937202550041154       0.342030504593391
                 12450.4      -0.936876228751422        0.34288750023772    -1.0994057198715e-05    3.87095025273243e-06    -1.0994057198715e-05    3.87095025273243e-06      -0.936876228751422        0.34288750023772
                 12450.8      -0.936547372412684       0.343748673423394   -1.11065397147086e-05     3.9257673928445e-06   -1.11065397147086e-05     3.9257673928445e-06      -0.936547372412684       0.343748673423394
                 12451.2      -0.936215954772386       0.344614053903035   -1.12204300569426e-05    3.98148678005179e-06   -1.12204300569426e-05    3.98148678005179e-06      -0.936215954772386       0.344614053903035
                 12451.6       -0.93588194923802       0.345483671701984   -1.13357489543664e-05     4.0381254332932e-06   -1.13357489543664e-05     4.0381254332932e-06       -0.93588194923802       0.345483671701984
                   12452      -0.935545328871831       0.346357557121291   -1.14525174843041e-05    4.09570073431658e-06   -1.14525174843041e-05    4.09570073431658e-06      -0.935545328871831       0.346357557121291
                 12452.4      -0.935206066385441       0.347235740740697   -1.15707570789646e-05    4.15423043631192e-06   -1.15707570789646e-05    4.15423043631192e-06      -0.935206066385441       0.347235740740697
                 12452.8      -0.934864134134368       0.348118253421692   -1.16904895320868e-05    4.21373267277313e-06   -1.16904895320868e-05    4.21373267277313e-06      -0.934864134134368       0.348118253421692
                 12453.2      -0.934519504112447       0.349005126310573   -1.18117370057171e-05    4.27422596659213e-06   -1.18117370057171e-05    4.27422596659213e-06      -0.934519504112447       0.349005126310573
                 12453.6      -0.934172147946147       0.349896390841573   -1.19345220371275e-05    4.33572923939452e-06   -1.19345220371275e-05    4.33572923939452e-06      -0.934172147946147       0.349896390841573
                   12454      -0.933822036888787       0.350792078739992   -1.20588675458697e-05    4.39826182112035e-06   -1.20588675458697e-05    4.39826182112035e-06      -0.933822036888787       0.350792078739992