! This file was generated by CST Filter Designer 3D
! _________________________________________________
! Date:                         10.08.2025 09:36:36

# MHZ S RI R 50
!              Frequency                 Re(S11)                 Im(S11)                 Re(S21)                 Im(S21)                 Re(S12)                 Im(S12)                 Re(S22)                 Im(S22)
                   11344      -0.949856279102054       0.307884731353259   -5.33819467708335e-06   -1.54838409981061e-05   -5.33819467708335e-06   -1.54838409981061e-05      -0.949856279102054       0.307884731353259
                 11344.4      -0.949652136653999       0.308493825826402   -5.39157988708136e-06   -1.56042468917114e-05   -5.39157988708136e-06   -1.56042468917114e-05      -0.949652136653999       0.308493825826402
                 11344.8      -0.949446748777626       0.309105286198721   -5.44560343855982e-06   -1.57258089793162e-05   -5.44560343855982e-06   -1.57258089793162e-05      -0.949446748777626       0.309105286198721
                 11345.2      -0.949240105306614       0.309719126094921   -5.50027421288227e-06    -1.5848540422749e-05   -5.50027421288227e-06    -1.5848540422749e-05      -0.949240105306614       0.309719126094921
                 11345.6      -0.949032195970456       0.310335359242727   -5.55560123229488e-06   -1.59724545562327e-05   -5.55560123229488e-06   -1.59724545562327e-05      -0.949032195970456       0.310335359242727
                   11346      -0.948823010393175       0.310953999473832   -5.61159366243411e-06   -1.60975648889222e-05   -5.61159366243411e-06   -1.60975648889222e-05      -0.948823010393175       0.310953999473832
                 11346.4      -0.948612538092011       0.311575060724858   -5.66826081488384e-06   -1.62238851074813e-05   -5.66826081488384e-06   -1.62238851074813e-05      -0.948612538092011       0.311575060724858
                 11346.8      -0.948400768476105       0.312198557038339   -5.72561214978354e-06   -1.63514290787036e-05   -5.72561214978354e-06   -1.63514290787036e-05      -0.948400768476105       0.312198557038339
                 11347.2      -0.948187690845149       0.312824502563698   -5.78365727848742e-06   -1.64802108521746e-05   -5.78365727848742e-06   -1.64802108521746e-05      -0.948187690845149       0.312824502563698
                 11347.6      -0.947973294388024       0.313452911558248   -5.84240596627672e-06   -1.66102446629771e-05   -5.84240596627672e-06   -1.66102446629771e-05      -0.947973294388024       0.313452911558248
                   11348      -0.947757568181416       0.314083798388189   -5.90186813512541e-06   -1.67415449344401e-05   -5.90186813512541e-06   -1.67415449344401e-05      -0.947757568181416       0.314083798388189
                 11348.4      -0.947540501188415       0.314717177529634   -5.96205386652186e-06   -1.68741262809348e-05   -5.96205386652186e-06   -1.68741262809348e-05      -0.947540501188415       0.314717177529634
                 11348.8      -0.947322082257087       0.315353063569628   -6.02297340434528e-06   -1.70080035107124e-05   -6.02297340434528e-06   -1.70080035107124e-05      -0.947322082257087       0.315353063569628
                 11349.2      -0.947102300119031       0.315991471207196   -6.08463715780175e-06   -1.71431916287929e-05   -6.08463715780175e-06   -1.71431916287929e-05      -0.947102300119031       0.315991471207196
                 11349.6      -0.946881143387912       0.316632415254387    -6.1470557044168e-06   -1.72797058398965e-05    -6.1470557044168e-06   -1.72797058398965e-05      -0.946881143387912       0.316632415254387
                   11350      -0.946658600557972       0.317275910637337   -6.21023979308973e-06   -1.74175615514267e-05   -6.21023979308973e-06   -1.74175615514267e-05      -0.946658600557972       0.317275910637337
                 11350.4       -0.94643466000252       0.317921972397345    -6.2742003472083e-06      -1.75567743765e-05    -6.2742003472083e-06      -1.75567743765e-05       -0.94643466000252       0.317921972397345
                 11350.8        -0.9462093099724       0.318570615691952   -6.33894846782639e-06   -1.76973601370261e-05   -6.33894846782639e-06   -1.76973601370261e-05        -0.9462093099724       0.318570615691952
                 11351.2      -0.945982538594437       0.319221855796041    -6.4044954369055e-06   -1.78393348668376e-05    -6.4044954369055e-06   -1.78393348668376e-05      -0.945982538594437       0.319221855796041
                 11351.6      -0.945754333869854       0.319875708102951   -6.47085272062328e-06   -1.79827148148755e-05   -6.47085272062328e-06   -1.79827148148755e-05      -0.945754333869854       0.319875708102951
                   11352      -0.945524683672675       0.320532188125586   -6.53803197274603e-06   -1.81275164484195e-05   -6.53803197274603e-06   -1.81275164484195e-05      -0.945524683672675       0.320532188125586
                 11352.4      -0.945293575748095        0.32119131149756   -6.60604503807308e-06   -1.82737564563798e-05   -6.60604503807308e-06   -1.82737564563798e-05      -0.945293575748095        0.32119131149756
                 11352.8      -0.945060997710832       0.321853093974336   -6.67490395594821e-06   -1.84214517526366e-05   -6.67490395594821e-06   -1.84214517526366e-05      -0.945060997710832       0.321853093974336
                 11353.2      -0.944826937043452       0.322517551434385    -6.7446209638445e-06   -1.85706194794388e-05    -6.7446209638445e-06   -1.85706194794388e-05      -0.944826937043452       0.322517551434385
                 11353.6      -0.944591381094666       0.323184699880355   -6.81520850102124e-06   -1.87212770108572e-05   -6.81520850102124e-06   -1.87212770108572e-05      -0.944591381094666       0.323184699880355
                   11354      -0.944354317077606       0.323854555440263   -6.88667921225663e-06   -1.88734419562962e-05   -6.88667921225663e-06   -1.88734419562962e-05      -0.944354317077606       0.323854555440263
                 11354.4      -0.944115732068072       0.324527134368681   -6.95904595165558e-06   -1.90271321640617e-05   -6.95904595165558e-06   -1.90271321640617e-05      -0.944115732068072       0.324527134368681
                 11354.8      -0.943875613002755       0.325202453047955   -7.03232178653676e-06     -1.918236572499e-05   -7.03232178653676e-06     -1.918236572499e-05      -0.943875613002755       0.325202453047955
                 11355.2      -0.943633946677428       0.325880527989421    -7.1065200013989e-06   -1.93391609761364e-05    -7.1065200013989e-06   -1.93391609761364e-05      -0.943633946677428       0.325880527989421
                 11355.6      -0.943390719745116       0.326561375834647    -7.1816541019692e-06   -1.94975365045249e-05    -7.1816541019692e-06   -1.94975365045249e-05      -0.943390719745116       0.326561375834647
                   11356      -0.943145918714232       0.327245013356683   -7.25773781933496e-06   -1.96575111509607e-05   -7.25773781933496e-06   -1.96575111509607e-05      -0.943145918714232       0.327245013356683
                 11356.4      -0.942899529946691       0.327931457461319   -7.33478511416052e-06   -1.98191040139056e-05   -7.33478511416052e-06   -1.98191040139056e-05      -0.942899529946691       0.327931457461319
                 11356.8      -0.942651539655986       0.328620725188377   -7.41281018099265e-06   -1.99823344534205e-05   -7.41281018099265e-06   -1.99823344534205e-05      -0.942651539655986       0.328620725188377
                 11357.2      -0.942401933905246        0.32931283371299   -7.49182745265332e-06   -2.01472220951692e-05   -7.49182745265332e-06   -2.01472220951692e-05      -0.942401933905246        0.32931283371299
                 11357.6      -0.942150698605252       0.330007800346917   -7.57185160472583e-06   -2.03137868344939e-05   -7.57185160472583e-06   -2.03137868344939e-05      -0.942150698605252       0.330007800346917
                   11358      -0.941897819512436       0.330705642539854   -7.65289756013248e-06   -2.04820488405548e-05   -7.65289756013248e-06   -2.04820488405548e-05      -0.941897819512436       0.330705642539854
                 11358.4      -0.941643282226833       0.331406377880788   -7.73498049381025e-06    -2.0652028560544e-05   -7.73498049381025e-06    -2.0652028560544e-05      -0.941643282226833       0.331406377880788
                 11358.8      -0.941387072190015       0.332110024099334   -7.81811583748177e-06    -2.0823746723965e-05   -7.81811583748177e-06    -2.0823746723965e-05      -0.941387072190015       0.332110024099334
                 11359.2      -0.941129174682984       0.332816599067107    -7.9023192845279e-06   -2.09972243469874e-05    -7.9023192845279e-06   -2.09972243469874e-05      -0.941129174682984       0.332816599067107
                 11359.6      -0.940869574824044       0.333526120799094   -7.98760679496117e-06    -2.1172482736872e-05   -7.98760679496117e-06    -2.1172482736872e-05      -0.940869574824044       0.333526120799094
                   11360      -0.940608257566618        0.33423860745507   -8.07399460050652e-06   -2.13495434964752e-05   -8.07399460050652e-06   -2.13495434964752e-05      -0.940608257566618        0.33423860745507
                 11360.4      -0.940345207697058       0.334954077340991   -8.16149920978547e-06   -2.15284285288231e-05   -8.16149920978547e-06   -2.15284285288231e-05      -0.940345207697058       0.334954077340991
                 11360.8      -0.940080409832399       0.335672548910432   -8.25013741361288e-06   -2.17091600417672e-05   -8.25013741361288e-06   -2.17091600417672e-05      -0.940080409832399       0.335672548910432
                 11361.2      -0.939813848418089       0.336394040766028   -8.33992629040382e-06   -2.18917605527168e-05   -8.33992629040382e-06   -2.18917605527168e-05      -0.939813848418089       0.336394040766028
                 11361.6      -0.939545507725678        0.33711857166094   -8.43088321169704e-06   -2.20762528934531e-05   -8.43088321169704e-06   -2.20762528934531e-05      -0.939545507725678        0.33711857166094
                   11362      -0.939275371850476       0.337846160500324   -8.52302584779314e-06   -2.22626602150212e-05   -8.52302584779314e-06   -2.22626602150212e-05      -0.939275371850476       0.337846160500324
                 11362.4      -0.939003424709167       0.338576826342829   -8.61637217351505e-06   -2.24510059927086e-05   -8.61637217351505e-06   -2.24510059927086e-05      -0.939003424709167       0.338576826342829
                 11362.8      -0.938729650037391       0.339310588402106   -8.71094047409039e-06    -2.2641314031106e-05   -8.71094047409039e-06    -2.2641314031106e-05      -0.938729650037391       0.339310588402106
                 11363.2      -0.938454031387285       0.340047466048335   -8.80674935115951e-06   -2.28336084692547e-05   -8.80674935115951e-06   -2.28336084692547e-05      -0.938454031387285       0.340047466048335
                 11363.6      -0.938176552124986       0.340787478809772   -8.90381772891263e-06   -2.30279137858812e-05   -8.90381772891263e-06   -2.30279137858812e-05      -0.938176552124986       0.340787478809772
                   11364      -0.937897195428089       0.341530646374305   -9.00216486035795e-06   -2.32242548047201e-05   -9.00216486035795e-06   -2.32242548047201e-05      -0.937897195428089       0.341530646374305
                 11364.4      -0.937615944283077        0.34227698859104   -9.10181033372495e-06   -2.34226566999281e-05   -9.10181033372495e-06   -2.34226566999281e-05      -0.937615944283077        0.34227698859104
                 11364.8      -0.937332781482693       0.343026525471893   -9.20277407900563e-06   -2.36231450015905e-05   -9.20277407900563e-06   -2.36231450015905e-05      -0.937332781482693       0.343026525471893
                 11365.2      -0.937047689623283       0.343779277193204    -9.3050763746365e-06   -2.38257456013199e-05    -9.3050763746365e-06   -2.38257456013199e-05      -0.937047689623283       0.343779277193204
                 11365.6      -0.936760651102087       0.344535264097384   -9.40873785432647e-06    -2.4030484757954e-05   -9.40873785432647e-06    -2.4030484757954e-05      -0.936760651102087       0.344535264097384
                   11366      -0.936471648114498       0.345294506694545   -9.51377951402961e-06   -2.42373891033442e-05   -9.51377951402961e-06   -2.42373891033442e-05      -0.936471648114498       0.345294506694545
                 11366.4      -0.936180662651262       0.346057025664191   -9.62022271907321e-06   -2.44464856482502e-05   -9.62022271907321e-06   -2.44464856482502e-05      -0.936180662651262       0.346057025664191
                 11366.8      -0.935887676495643       0.346822841856893    -9.7280892114376e-06   -2.46578017883302e-05    -9.7280892114376e-06   -2.46578017883302e-05      -0.935887676495643       0.346822841856893
                 11367.2      -0.935592671220538       0.347591976296007   -9.83740111719638e-06   -2.48713653102353e-05   -9.83740111719638e-06   -2.48713653102353e-05      -0.935592671220538       0.347591976296007
                 11367.6      -0.935295628185547       0.348364450179395   -9.94818095411833e-06   -2.50872043978079e-05   -9.94818095411833e-06   -2.50872043978079e-05      -0.935295628185547       0.348364450179395
                   11368      -0.934996528533991       0.349140284881176   -1.00604516394366e-05   -2.53053476383876e-05   -1.00604516394366e-05   -2.53053476383876e-05      -0.934996528533991       0.349140284881176
                 11368.4      -0.934695353189884       0.349919501953504   -1.01742364977885e-05    -2.5525824029225e-05   -1.01742364977885e-05    -2.5525824029225e-05      -0.934695353189884       0.349919501953504
                 11368.8      -0.934392082854858       0.350702123128331   -1.02895592693259e-05   -2.57486629839998e-05   -1.02895592693259e-05   -2.57486629839998e-05      -0.934392082854858       0.350702123128331
                 11369.2      -0.934086698005032       0.351488170319235   -1.04064441180101e-05   -2.59738943394598e-05   -1.04064441180101e-05   -2.59738943394598e-05      -0.934086698005032       0.351488170319235
                 11369.6      -0.933779178887834       0.352277665623245   -1.05249156400856e-05   -2.62015483621686e-05   -1.05249156400856e-05   -2.62015483621686e-05      -0.933779178887834       0.352277665623245
                   11370      -0.933469505518765       0.353070631322682   -1.06449988727418e-05   -2.64316557553685e-05   -1.06449988727418e-05   -2.64316557553685e-05      -0.933469505518765       0.353070631322682
                 11370.4      -0.933157657678113       0.353867089887039   -1.07667193029678e-05   -2.66642476659644e-05   -1.07667193029678e-05   -2.66642476659644e-05      -0.933157657678113       0.353867089887039
                 11370.8      -0.932843614907614       0.354667063974871   -1.08901028766029e-05   -2.68993556916274e-05   -1.08901028766029e-05   -2.68993556916274e-05      -0.932843614907614       0.354667063974871
                 11371.2      -0.932527356507056       0.355470576435699   -1.10151760075872e-05   -2.71370118880166e-05   -1.10151760075872e-05   -2.71370118880166e-05      -0.932527356507056       0.355470576435699
                 11371.6      -0.932208861530819       0.356277650311954   -1.11419655874201e-05   -2.73772487761305e-05   -1.11419655874201e-05   -2.73772487761305e-05      -0.932208861530819       0.356277650311954
                   11372      -0.931888108784374       0.357088308840933   -1.12704989948292e-05   -2.76200993497824e-05   -1.12704989948292e-05   -2.76200993497824e-05      -0.931888108784374       0.357088308840933
                 11372.4      -0.931565076820702       0.357902575456776   -1.14008041056558e-05    -2.7865597083206e-05   -1.14008041056558e-05    -2.7865597083206e-05      -0.931565076820702       0.357902575456776
                 11372.8      -0.931239743936671       0.358720473792465   -1.15329093029608e-05    -2.8113775938789e-05   -1.15329093029608e-05    -2.8113775938789e-05      -0.931239743936671       0.358720473792465
                 11373.2       -0.93091208816934       0.359542027681856    -1.1666843487359e-05   -2.83646703749444e-05    -1.1666843487359e-05   -2.83646703749444e-05       -0.93091208816934       0.359542027681856
                 11373.6      -0.930582087292206       0.360367261161723   -1.18026360875857e-05   -2.86183153541158e-05   -1.18026360875857e-05   -2.86183153541158e-05      -0.930582087292206       0.360367261161723
                   11374      -0.930249718811388       0.361196198473826   -1.19403170713005e-05   -2.88747463509193e-05   -1.19403170713005e-05   -2.88747463509193e-05      -0.930249718811388       0.361196198473826
                 11374.4      -0.929914959961744       0.362028864067011   -1.20799169561363e-05   -2.91339993604283e-05   -1.20799169561363e-05   -2.91339993604283e-05      -0.929914959961744       0.362028864067011
                 11374.8      -0.929577787702919       0.362865282599321   -1.22214668209975e-05   -2.93961109065999e-05   -1.22214668209975e-05   -2.93961109065999e-05      -0.929577787702919       0.362865282599321
                 11375.2      -0.929238178715329       0.363705478940155   -1.23649983176176e-05   -2.96611180508513e-05   -1.23649983176176e-05   -2.96611180508513e-05      -0.929238178715329       0.363705478940155
                 11375.6       -0.92889610939608       0.364549478172415   -1.25105436823735e-05   -2.99290584007756e-05   -1.25105436823735e-05   -2.99290584007756e-05       -0.92889610939608       0.364549478172415
                   11376      -0.928551555854811        0.36539730559471   -1.26581357483746e-05   -3.01999701190167e-05   -1.26581357483746e-05   -3.01999701190167e-05      -0.928551555854811        0.36539730559471
                 11376.4      -0.928204493909464        0.36624898672357   -1.28078079578253e-05   -3.04738919322946e-05   -1.28078079578253e-05   -3.04738919322946e-05      -0.928204493909464        0.36624898672357
                 11376.8      -0.927854899081986       0.367104547295695   -1.29595943746712e-05   -3.07508631405872e-05   -1.29595943746712e-05   -3.07508631405872e-05      -0.927854899081986       0.367104547295695
                 11377.2      -0.927502746593959       0.367964013270209   -1.31135296975328e-05   -3.10309236264685e-05   -1.31135296975328e-05   -3.10309236264685e-05      -0.927502746593959       0.367964013270209
                 11377.6      -0.927148011362142        0.36882741083097   -1.32696492729405e-05   -3.13141138646143e-05   -1.32696492729405e-05   -3.13141138646143e-05      -0.927148011362142        0.36882741083097
                   11378      -0.926790667993949       0.369694766388877   -1.34279891088696e-05   -3.16004749314656e-05   -1.34279891088696e-05   -3.16004749314656e-05      -0.926790667993949       0.369694766388877
                 11378.4      -0.926430690782844       0.370566106584222   -1.35885858885895e-05   -3.18900485150623e-05   -1.35885858885895e-05   -3.18900485150623e-05      -0.926430690782844       0.370566106584222
                 11378.8      -0.926068053703647       0.371441458289069   -1.37514769848346e-05   -3.21828769250516e-05   -1.37514769848346e-05   -3.21828769250516e-05      -0.926068053703647       0.371441458289069
                 11379.2      -0.925702730407777       0.372320848609639   -1.39167004742981e-05   -3.24790031028579e-05   -1.39167004742981e-05   -3.24790031028579e-05      -0.925702730407777       0.372320848609639
                 11379.6      -0.925334694218382       0.373204304888762   -1.40842951524705e-05   -3.27784706320457e-05   -1.40842951524705e-05   -3.27784706320457e-05      -0.925334694218382       0.373204304888762
                   11380       -0.92496391812542       0.374091854708303   -1.42543005488113e-05    -3.3081323748841e-05   -1.42543005488113e-05    -3.3081323748841e-05       -0.92496391812542       0.374091854708303
                 11380.4      -0.924590374780615       0.374983525891675   -1.44267569422872e-05   -3.33876073528571e-05   -1.44267569422872e-05   -3.33876073528571e-05      -0.924590374780615       0.374983525891675
                 11380.8       -0.92421403649236       0.375879346506326   -1.46017053772618e-05   -3.36973670179865e-05   -1.46017053772618e-05   -3.36973670179865e-05       -0.92421403649236       0.375879346506326
                 11381.2      -0.923834875220497       0.376779344866299   -1.47791876797642e-05   -3.40106490034941e-05   -1.47791876797642e-05   -3.40106490034941e-05      -0.923834875220497       0.376779344866299
                 11381.6       -0.92345286257103       0.377683549534782   -1.49592464741342e-05   -3.43275002652946e-05   -1.49592464741342e-05   -3.43275002652946e-05       -0.92345286257103       0.377683549534782
                   11382      -0.923067969790723       0.378591989326731   -1.51419252000639e-05   -3.46479684674329e-05   -1.51419252000639e-05   -3.46479684674329e-05      -0.923067969790723       0.378591989326731
                 11382.4      -0.922680167761619       0.379504693311475   -1.53272681300328e-05   -3.49721019937514e-05   -1.53272681300328e-05   -3.49721019937514e-05      -0.922680167761619       0.379504693311475
                 11382.8      -0.922289426995451       0.380421690815384   -1.55153203871604e-05   -3.52999499597693e-05   -1.55153203871604e-05   -3.52999499597693e-05      -0.922289426995451       0.380421690815384
                 11383.2      -0.921895717627949        0.38134301142456    -1.5706127963479e-05   -3.56315622247631e-05    -1.5706127963479e-05   -3.56315622247631e-05      -0.921895717627949        0.38134301142456
                 11383.6      -0.921499009413054        0.38226868498755   -1.58997377386367e-05    -3.5966989404054e-05   -1.58997377386367e-05    -3.5966989404054e-05      -0.921499009413054        0.38226868498755
                   11384      -0.921099271717023       0.383198741618102   -1.60961974990474e-05   -3.63062828815098e-05   -1.60961974990474e-05   -3.63062828815098e-05      -0.921099271717023       0.383198741618102
                 11384.4      -0.920696473512427       0.384133211697933   -1.62955559574935e-05   -3.66494948222591e-05   -1.62955559574935e-05   -3.66494948222591e-05      -0.920696473512427       0.384133211697933
                 11384.8      -0.920290583372035       0.385072125879557   -1.64978627731973e-05   -3.69966781856283e-05   -1.64978627731973e-05   -3.69966781856283e-05      -0.920290583372035       0.385072125879557
                 11385.2      -0.919881569462596        0.38601551508912    -1.6703168572372e-05   -3.73478867383012e-05    -1.6703168572372e-05   -3.73478867383012e-05      -0.919881569462596        0.38601551508912
                 11385.6      -0.919469399538505       0.386963410529274   -1.69115249692603e-05   -3.77031750676972e-05   -1.69115249692603e-05   -3.77031750676972e-05      -0.919469399538505       0.386963410529274
                   11386      -0.919054040935342        0.38791584368209   -1.71229845876837e-05   -3.80625985955914e-05   -1.71229845876837e-05   -3.80625985955914e-05      -0.919054040935342        0.38791584368209
                 11386.4      -0.918635460563312       0.388872846311995   -1.73376010831021e-05   -3.84262135919565e-05   -1.73376010831021e-05   -3.84262135919565e-05      -0.918635460563312       0.388872846311995
                 11386.8      -0.918213624900541       0.389834450468756   -1.75554291652132e-05   -3.87940771890552e-05   -1.75554291652132e-05   -3.87940771890552e-05      -0.918213624900541       0.389834450468756
                 11387.2       -0.91778849998627       0.390800688490471   -1.77765246210858e-05    -3.9166247395758e-05   -1.77765246210858e-05    -3.9166247395758e-05       -0.91778849998627       0.390800688490471
                 11387.6      -0.917360051413909        0.39177159300662   -1.80009443388622e-05   -3.95427831121188e-05   -1.80009443388622e-05   -3.95427831121188e-05      -0.917360051413909        0.39177159300662
                   11388      -0.916928244323965       0.392747196941144   -1.82287463320299e-05   -3.99237441441962e-05   -1.82287463320299e-05   -3.99237441441962e-05      -0.916928244323965       0.392747196941144
                 11388.4      -0.916493043396844       0.393727533515543   -1.84599897642813e-05    -4.0309191219123e-05   -1.84599897642813e-05    -4.0309191219123e-05      -0.916493043396844       0.393727533515543
                 11388.8      -0.916054412845505       0.394712636252034    -1.8694734974982e-05   -4.06991860004396e-05    -1.8694734974982e-05   -4.06991860004396e-05      -0.916054412845505       0.394712636252034
                 11389.2      -0.915612316407994       0.395702538976716   -1.89330435052542e-05   -4.10937911036811e-05   -1.89330435052542e-05   -4.10937911036811e-05      -0.915612316407994       0.395702538976716
                 11389.6      -0.915166717339827       0.396697275822796   -1.91749781247018e-05   -4.14930701122349e-05   -1.91749781247018e-05   -4.14930701122349e-05      -0.915166717339827       0.396697275822796
                   11390      -0.914717578406228       0.397696881233824   -1.94206028587848e-05   -4.18970875934612e-05   -1.94206028587848e-05   -4.18970875934612e-05      -0.914717578406228       0.397696881233824
                 11390.4      -0.914264861874228       0.398701389967002   -1.96699830168713e-05   -4.23059091150969e-05   -1.96699830168713e-05   -4.23059091150969e-05      -0.914264861874228       0.398701389967002
                 11390.8      -0.913808529504607       0.399710837096479   -1.99231852209694e-05   -4.27196012619207e-05   -1.99231852209694e-05   -4.27196012619207e-05      -0.913808529504607       0.399710837096479
                 11391.2      -0.913348542543688       0.400725258016738   -2.01802774351769e-05   -4.31382316527172e-05   -2.01802774351769e-05   -4.31382316527172e-05      -0.913348542543688       0.400725258016738
                 11391.6      -0.912884861714974       0.401744688445966   -2.04413289958466e-05   -4.35618689575091e-05   -2.04413289958466e-05   -4.35618689575091e-05      -0.912884861714974       0.401744688445966
                   11392      -0.912417447210623       0.402769164429493   -2.07064106425037e-05    -4.3990582915088e-05   -2.07064106425037e-05    -4.3990582915088e-05      -0.912417447210623       0.402769164429493
                 11392.4      -0.911946258682761       0.403798722343279   -2.09755945495305e-05   -4.44244443508432e-05   -2.09755945495305e-05   -4.44244443508432e-05      -0.911946258682761       0.403798722343279
                 11392.8      -0.911471255234629       0.404833398897395     -2.124895435863e-05   -4.48635251948745e-05     -2.124895435863e-05   -4.48635251948745e-05      -0.911471255234629       0.404833398897395
                 11393.2      -0.910992395411555       0.405873231139593    -2.1526565212105e-05   -4.53078985004219e-05    -2.1526565212105e-05   -4.53078985004219e-05      -0.910992395411555       0.405873231139593
                 11393.6      -0.910509637191761       0.406918256458875   -2.18085037869595e-05   -4.57576384625885e-05   -2.18085037869595e-05   -4.57576384625885e-05      -0.910509637191761       0.406918256458875
                   11394      -0.910022937976984       0.407968512589113   -2.20948483298538e-05   -4.62128204373793e-05   -2.20948483298538e-05   -4.62128204373793e-05      -0.910022937976984       0.407968512589113
                 11394.4      -0.909532254582913       0.409024037612728   -2.23856786929387e-05   -4.66735209610601e-05   -2.23856786929387e-05   -4.66735209610601e-05      -0.909532254582913       0.409024037612728
                 11394.8      -0.909037543229449       0.410084869964371   -2.26810763705796e-05   -4.71398177698224e-05   -2.26810763705796e-05   -4.71398177698224e-05      -0.909037543229449       0.410084869964371
                 11395.2      -0.908538759530768        0.41115104843467   -2.29811245370088e-05   -4.76117898197808e-05   -2.29811245370088e-05   -4.76117898197808e-05      -0.908538759530768        0.41115104843467
                 11395.6      -0.908035858485188       0.412222612174016   -2.32859080849249e-05   -4.80895173072947e-05   -2.32859080849249e-05   -4.80895173072947e-05      -0.908035858485188       0.412222612174016
                   11396       -0.90752879446484       0.413299600696374   -2.35955136650645e-05   -4.85730816896209e-05   -2.35955136650645e-05   -4.85730816896209e-05       -0.90752879446484       0.413299600696374
                 11396.4      -0.907017521205142       0.414382053883136     -2.391002972677e-05   -4.90625657058946e-05     -2.391002972677e-05   -4.90625657058946e-05      -0.907017521205142       0.414382053883136
                 11396.8      -0.906501991794045       0.415470011987043   -2.42295465595965e-05   -4.95580533984675e-05   -2.42295465595965e-05   -4.95580533984675e-05      -0.906501991794045       0.415470011987043
                 11397.2      -0.905982158661089       0.416563515636099   -2.45541563359582e-05   -5.00596301345645e-05   -2.45541563359582e-05   -5.00596301345645e-05      -0.905982158661089       0.416563515636099
                 11397.6      -0.905457973566228       0.417662605837567   -2.48839531548722e-05    -5.0567382628309e-05   -2.48839531548722e-05    -5.0567382628309e-05      -0.905457973566228       0.417662605837567
                   11398      -0.904929387588431        0.41876732398199   -2.52190330868112e-05   -5.10813989630877e-05   -2.52190330868112e-05   -5.10813989630877e-05      -0.904929387588431        0.41876732398199