! AWR Design Environment (6079) Wed Aug 09 19:54:36 2023
! Simulator: Linear circuit simulator (flat)
! Ports: 2, Freqs: 3601
# GHz S RI R 50
!-----------------------------------------------------------------------------
!Freq           ReS11         ImS11         ReS21         ImS21         ReS12         ImS12         ReS22         ImS22
 12.44        -0.906331      0.418251      2.15468e-5    4.48685e-5    2.15468e-5    4.48685e-5   -0.906331      0.418251     
 12.4401      -0.906258      0.418405      2.15875e-5    4.4933e-5     2.15875e-5    4.4933e-5    -0.906258      0.418405     
 12.4402      -0.906185      0.418559      2.16283e-5    4.49976e-5    2.16283e-5    4.49976e-5   -0.906185      0.418559     
 12.4403      -0.906113      0.418713      2.16693e-5    4.50623e-5    2.16693e-5    4.50623e-5   -0.906113      0.418713     
 12.4404      -0.90604       0.418868      2.17103e-5    4.51272e-5    2.17103e-5    4.51272e-5   -0.90604       0.418868     
 12.4405      -0.905967      0.419022      2.17514e-5    4.51921e-5    2.17514e-5    4.51921e-5   -0.905967      0.419022     
 12.4406      -0.905894      0.419177      2.17926e-5    4.52572e-5    2.17926e-5    4.52572e-5   -0.905894      0.419177     
 12.4407      -0.905821      0.419331      2.18339e-5    4.53224e-5    2.18339e-5    4.53224e-5   -0.905821      0.419331     
 12.4408      -0.905747      0.419486      2.18753e-5    4.53877e-5    2.18753e-5    4.53877e-5   -0.905747      0.419486     
 12.4409      -0.905674      0.419641      2.19168e-5    4.54531e-5    2.19168e-5    4.54531e-5   -0.905674      0.419641     
 12.441       -0.905601      0.419796      2.19584e-5    4.55187e-5    2.19584e-5    4.55187e-5   -0.905601      0.419796     
 12.4411      -0.905527      0.419951      2.2e-5        4.55843e-5    2.2e-5        4.55843e-5   -0.905527      0.419951     
 12.4412      -0.905454      0.420106      2.20418e-5    4.56501e-5    2.20418e-5    4.56501e-5   -0.905454      0.420106     
 12.4413      -0.90538       0.420261      2.20837e-5    4.5716e-5     2.20837e-5    4.5716e-5    -0.90538       0.420261     
 12.4414      -0.905306      0.420417      2.21256e-5    4.5782e-5     2.21256e-5    4.5782e-5    -0.905306      0.420417     
 12.4415      -0.905233      0.420572      2.21677e-5    4.58481e-5    2.21677e-5    4.58481e-5   -0.905233      0.420572     
 12.4416      -0.905159      0.420728      2.22098e-5    4.59143e-5    2.22098e-5    4.59143e-5   -0.905159      0.420728     
 12.4417      -0.905085      0.420883      2.22521e-5    4.59807e-5    2.22521e-5    4.59807e-5   -0.905085      0.420883     
 12.4418      -0.905011      0.421039      2.22944e-5    4.60471e-5    2.22944e-5    4.60471e-5   -0.905011      0.421039     
 12.4419      -0.904936      0.421195      2.23369e-5    4.61137e-5    2.23369e-5    4.61137e-5   -0.904936      0.421195     
 12.442       -0.904862      0.421351      2.23794e-5    4.61804e-5    2.23794e-5    4.61804e-5   -0.904862      0.421351     
 12.4421      -0.904788      0.421507      2.2422e-5     4.62473e-5    2.2422e-5     4.62473e-5   -0.904788      0.421507     
 12.4422      -0.904713      0.421664      2.24648e-5    4.63142e-5    2.24648e-5    4.63142e-5   -0.904713      0.421664     
 12.4423      -0.904639      0.42182       2.25076e-5    4.63813e-5    2.25076e-5    4.63813e-5   -0.904639      0.42182      
 12.4424      -0.904564      0.421976      2.25505e-5    4.64485e-5    2.25505e-5    4.64485e-5   -0.904564      0.421976     
 12.4425      -0.90449       0.422133      2.25935e-5    4.65158e-5    2.25935e-5    4.65158e-5   -0.90449       0.422133     
 12.4426      -0.904415      0.42229       2.26366e-5    4.65832e-5    2.26366e-5    4.65832e-5   -0.904415      0.42229      
 12.4427      -0.90434       0.422446      2.26799e-5    4.66508e-5    2.26799e-5    4.66508e-5   -0.90434       0.422446     
 12.4428      -0.904265      0.422603      2.27232e-5    4.67184e-5    2.27232e-5    4.67184e-5   -0.904265      0.422603     
 12.4429      -0.90419       0.42276       2.27666e-5    4.67862e-5    2.27666e-5    4.67862e-5   -0.90419       0.42276      
 12.443       -0.904115      0.422918      2.28101e-5    4.68541e-5    2.28101e-5    4.68541e-5   -0.904115      0.422918     
 12.4431      -0.90404       0.423075      2.28537e-5    4.69221e-5    2.28537e-5    4.69221e-5   -0.90404       0.423075     
 12.4432      -0.903965      0.423232      2.28975e-5    4.69903e-5    2.28975e-5    4.69903e-5   -0.903965      0.423232     
 12.4433      -0.903889      0.42339       2.29413e-5    4.70586e-5    2.29413e-5    4.70586e-5   -0.903889      0.42339      
 12.4434      -0.903814      0.423547      2.29852e-5    4.7127e-5     2.29852e-5    4.7127e-5    -0.903814      0.423547     
 12.4435      -0.903738      0.423705      2.30292e-5    4.71955e-5    2.30292e-5    4.71955e-5   -0.903738      0.423705     
 12.4436      -0.903663      0.423863      2.30733e-5    4.72641e-5    2.30733e-5    4.72641e-5   -0.903663      0.423863     
 12.4437      -0.903587      0.424021      2.31175e-5    4.73329e-5    2.31175e-5    4.73329e-5   -0.903587      0.424021     
 12.4438      -0.903511      0.424179      2.31619e-5    4.74018e-5    2.31619e-5    4.74018e-5   -0.903511      0.424179     
 12.4439      -0.903435      0.424337      2.32063e-5    4.74708e-5    2.32063e-5    4.74708e-5   -0.903435      0.424337     
 12.444       -0.903359      0.424495      2.32508e-5    4.75399e-5    2.32508e-5    4.75399e-5   -0.903359      0.424495     
 12.4441      -0.903283      0.424654      2.32954e-5    4.76091e-5    2.32954e-5    4.76091e-5   -0.903283      0.424654     
 12.4442      -0.903207      0.424812      2.33402e-5    4.76785e-5    2.33402e-5    4.76785e-5   -0.903207      0.424812     
 12.4443      -0.903131      0.424971      2.3385e-5     4.7748e-5     2.3385e-5     4.7748e-5    -0.903131      0.424971     
 12.4444      -0.903054      0.425129      2.34299e-5    4.78177e-5    2.34299e-5    4.78177e-5   -0.903054      0.425129     
 12.4445      -0.902978      0.425288      2.3475e-5     4.78874e-5    2.3475e-5     4.78874e-5   -0.902978      0.425288     
 12.4446      -0.902901      0.425447      2.35201e-5    4.79573e-5    2.35201e-5    4.79573e-5   -0.902901      0.425447     
 12.4447      -0.902825      0.425606      2.35654e-5    4.80273e-5    2.35654e-5    4.80273e-5   -0.902825      0.425606     
 12.4448      -0.902748      0.425765      2.36107e-5    4.80974e-5    2.36107e-5    4.80974e-5   -0.902748      0.425765     
 12.4449      -0.902671      0.425925      2.36562e-5    4.81677e-5    2.36562e-5    4.81677e-5   -0.902671      0.425925     
 12.445       -0.902594      0.426084      2.37017e-5    4.82381e-5    2.37017e-5    4.82381e-5   -0.902594      0.426084     
 12.4451      -0.902517      0.426244      2.37474e-5    4.83086e-5    2.37474e-5    4.83086e-5   -0.902517      0.426244     
 12.4452      -0.90244       0.426403      2.37932e-5    4.83792e-5    2.37932e-5    4.83792e-5   -0.90244       0.426403     
 12.4453      -0.902363      0.426563      2.3839e-5     4.845e-5      2.3839e-5     4.845e-5     -0.902363      0.426563     
 12.4454      -0.902286      0.426723      2.3885e-5     4.85208e-5    2.3885e-5     4.85208e-5   -0.902286      0.426723     
 12.4455      -0.902209      0.426883      2.39311e-5    4.85919e-5    2.39311e-5    4.85919e-5   -0.902209      0.426883     
 12.4456      -0.902131      0.427043      2.39773e-5    4.8663e-5     2.39773e-5    4.8663e-5    -0.902131      0.427043     
 12.4457      -0.902054      0.427203      2.40236e-5    4.87343e-5    2.40236e-5    4.87343e-5   -0.902054      0.427203     
 12.4458      -0.901976      0.427363      2.407e-5      4.88057e-5    2.407e-5      4.88057e-5   -0.901976      0.427363     
 12.4459      -0.901898      0.427524      2.41165e-5    4.88772e-5    2.41165e-5    4.88772e-5   -0.901898      0.427524     
 12.446       -0.901821      0.427684      2.41631e-5    4.89489e-5    2.41631e-5    4.89489e-5   -0.901821      0.427684     
 12.4461      -0.901743      0.427845      2.42099e-5    4.90206e-5    2.42099e-5    4.90206e-5   -0.901743      0.427845     
 12.4462      -0.901665      0.428006      2.42567e-5    4.90926e-5    2.42567e-5    4.90926e-5   -0.901665      0.428006     
 12.4463      -0.901587      0.428167      2.43037e-5    4.91646e-5    2.43037e-5    4.91646e-5   -0.901587      0.428167     
 12.4464      -0.901509      0.428328      2.43507e-5    4.92368e-5    2.43507e-5    4.92368e-5   -0.901509      0.428328     
 12.4465      -0.90143       0.428489      2.43979e-5    4.93091e-5    2.43979e-5    4.93091e-5   -0.90143       0.428489     
 12.4466      -0.901352      0.42865       2.44452e-5    4.93815e-5    2.44452e-5    4.93815e-5   -0.901352      0.42865      
 12.4467      -0.901273      0.428811      2.44925e-5    4.94541e-5    2.44925e-5    4.94541e-5   -0.901273      0.428811     
 12.4468      -0.901195      0.428973      2.454e-5      4.95268e-5    2.454e-5      4.95268e-5   -0.901195      0.428973     
 12.4469      -0.901116      0.429134      2.45876e-5    4.95996e-5    2.45876e-5    4.95996e-5   -0.901116      0.429134     
 12.447       -0.901038      0.429296      2.46354e-5    4.96726e-5    2.46354e-5    4.96726e-5   -0.901038      0.429296     
 12.4471      -0.900959      0.429458      2.46832e-5    4.97457e-5    2.46832e-5    4.97457e-5   -0.900959      0.429458     
 12.4472      -0.90088       0.42962       2.47311e-5    4.98189e-5    2.47311e-5    4.98189e-5   -0.90088       0.42962      
 12.4473      -0.900801      0.429782      2.47792e-5    4.98923e-5    2.47792e-5    4.98923e-5   -0.900801      0.429782     
 12.4474      -0.900722      0.429944      2.48273e-5    4.99657e-5    2.48273e-5    4.99657e-5   -0.900722      0.429944     
 12.4475      -0.900643      0.430106      2.48756e-5    5.00394e-5    2.48756e-5    5.00394e-5   -0.900643      0.430106     
 12.4476      -0.900563      0.430269      2.4924e-5     5.01131e-5    2.4924e-5     5.01131e-5   -0.900563      0.430269     
 12.4477      -0.900484      0.430431      2.49725e-5    5.0187e-5     2.49725e-5    5.0187e-5    -0.900484      0.430431     
 12.4478      -0.900405      0.430594      2.50211e-5    5.0261e-5     2.50211e-5    5.0261e-5    -0.900405      0.430594     
 12.4479      -0.900325      0.430756      2.50698e-5    5.03352e-5    2.50698e-5    5.03352e-5   -0.900325      0.430756     
 12.448       -0.900245      0.430919      2.51186e-5    5.04095e-5    2.51186e-5    5.04095e-5   -0.900245      0.430919     
 12.4481      -0.900166      0.431082      2.51676e-5    5.04839e-5    2.51676e-5    5.04839e-5   -0.900166      0.431082     
 12.4482      -0.900086      0.431245      2.52167e-5    5.05585e-5    2.52167e-5    5.05585e-5   -0.900086      0.431245     
 12.4483      -0.900006      0.431409      2.52658e-5    5.06332e-5    2.52658e-5    5.06332e-5   -0.900006      0.431409     
 12.4484      -0.899926      0.431572      2.53151e-5    5.0708e-5     2.53151e-5    5.0708e-5    -0.899926      0.431572     
 12.4485      -0.899846      0.431735      2.53645e-5    5.0783e-5     2.53645e-5    5.0783e-5    -0.899846      0.431735     
 12.4486      -0.899765      0.431899      2.54141e-5    5.08581e-5    2.54141e-5    5.08581e-5   -0.899765      0.431899     
 12.4487      -0.899685      0.432063      2.54637e-5    5.09333e-5    2.54637e-5    5.09333e-5   -0.899685      0.432063     
 12.4488      -0.899605      0.432226      2.55135e-5    5.10087e-5    2.55135e-5    5.10087e-5   -0.899605      0.432226     
 12.4489      -0.899524      0.43239       2.55633e-5    5.10842e-5    2.55633e-5    5.10842e-5   -0.899524      0.43239      
 12.449       -0.899443      0.432554      2.56133e-5    5.11599e-5    2.56133e-5    5.11599e-5   -0.899443      0.432554     
 12.4491      -0.899363      0.432718      2.56634e-5    5.12356e-5    2.56634e-5    5.12356e-5   -0.899363      0.432718     
 12.4492      -0.899282      0.432883      2.57137e-5    5.13116e-5    2.57137e-5    5.13116e-5   -0.899282      0.432883     
 12.4493      -0.899201      0.433047      2.5764e-5     5.13876e-5    2.5764e-5     5.13876e-5   -0.899201      0.433047     
 12.4494      -0.89912       0.433212      2.58145e-5    5.14638e-5    2.58145e-5    5.14638e-5   -0.89912       0.433212     
 12.4495      -0.899039      0.433376      2.5865e-5     5.15402e-5    2.5865e-5     5.15402e-5   -0.899039      0.433376     
 12.4496      -0.898958      0.433541      2.59157e-5    5.16167e-5    2.59157e-5    5.16167e-5   -0.898958      0.433541     
 12.4497      -0.898877      0.433706      2.59665e-5    5.16933e-5    2.59665e-5    5.16933e-5   -0.898877      0.433706     
 12.4498      -0.898795      0.433871      2.60175e-5    5.177e-5      2.60175e-5    5.177e-5     -0.898795      0.433871     
 12.4499      -0.898714      0.434036      2.60685e-5    5.18469e-5    2.60685e-5    5.18469e-5   -0.898714      0.434036     
 12.45        -0.898632      0.434201      2.61197e-5    5.1924e-5     2.61197e-5    5.1924e-5    -0.898632      0.434201     
 12.4501      -0.89855       0.434367      2.6171e-5     5.20012e-5    2.6171e-5     5.20012e-5   -0.89855       0.434367     
 12.4502      -0.898469      0.434532      2.62224e-5    5.20785e-5    2.62224e-5    5.20785e-5   -0.898469      0.434532     
 12.4503      -0.898387      0.434698      2.62739e-5    5.21559e-5    2.62739e-5    5.21559e-5   -0.898387      0.434698     
 12.4504      -0.898305      0.434863      2.63256e-5    5.22336e-5    2.63256e-5    5.22336e-5   -0.898305      0.434863     
 12.4505      -0.898223      0.435029      2.63774e-5    5.23113e-5    2.63774e-5    5.23113e-5   -0.898223      0.435029     
 12.4506      -0.898141      0.435195      2.64293e-5    5.23892e-5    2.64293e-5    5.23892e-5   -0.898141      0.435195     
 12.4507      -0.898058      0.435361      2.64813e-5    5.24672e-5    2.64813e-5    5.24672e-5   -0.898058      0.435361     
 12.4508      -0.897976      0.435527      2.65334e-5    5.25454e-5    2.65334e-5    5.25454e-5   -0.897976      0.435527     
 12.4509      -0.897893      0.435694      2.65857e-5    5.26237e-5    2.65857e-5    5.26237e-5   -0.897893      0.435694     
 12.451       -0.897811      0.43586       2.66381e-5    5.27022e-5    2.66381e-5    5.27022e-5   -0.897811      0.43586      
 12.4511      -0.897728      0.436027      2.66906e-5    5.27808e-5    2.66906e-5    5.27808e-5   -0.897728      0.436027     
 12.4512      -0.897645      0.436193      2.67433e-5    5.28595e-5    2.67433e-5    5.28595e-5   -0.897645      0.436193     
 12.4513      -0.897563      0.43636       2.6796e-5     5.29384e-5    2.6796e-5     5.29384e-5   -0.897563      0.43636      
 12.4514      -0.89748       0.436527      2.68489e-5    5.30174e-5    2.68489e-5    5.30174e-5   -0.89748       0.436527     
 12.4515      -0.897397      0.436694      2.69019e-5    5.30966e-5    2.69019e-5    5.30966e-5   -0.897397      0.436694     
 12.4516      -0.897313      0.436861      2.69551e-5    5.31759e-5    2.69551e-5    5.31759e-5   -0.897313      0.436861     
 12.4517      -0.89723       0.437028      2.70083e-5    5.32554e-5    2.70083e-5    5.32554e-5   -0.89723       0.437028     
 12.4518      -0.897147      0.437196      2.70617e-5    5.3335e-5     2.70617e-5    5.3335e-5    -0.897147      0.437196     
 12.4519      -0.897063      0.437363      2.71152e-5    5.34148e-5    2.71152e-5    5.34148e-5   -0.897063      0.437363     
 12.452       -0.89698       0.437531      2.71689e-5    5.34947e-5    2.71689e-5    5.34947e-5   -0.89698       0.437531     
 12.4521      -0.896896      0.437699      2.72226e-5    5.35748e-5    2.72226e-5    5.35748e-5   -0.896896      0.437699     
 12.4522      -0.896812      0.437867      2.72765e-5    5.3655e-5     2.72765e-5    5.3655e-5    -0.896812      0.437867     
 12.4523      -0.896728      0.438035      2.73306e-5    5.37353e-5    2.73306e-5    5.37353e-5   -0.896728      0.438035     
 12.4524      -0.896644      0.438203      2.73847e-5    5.38158e-5    2.73847e-5    5.38158e-5   -0.896644      0.438203     
 12.4525      -0.89656       0.438371      2.7439e-5     5.38965e-5    2.7439e-5     5.38965e-5   -0.89656       0.438371     
 12.4526      -0.896476      0.438539      2.74934e-5    5.39773e-5    2.74934e-5    5.39773e-5   -0.896476      0.438539     
 12.4527      -0.896392      0.438708      2.75479e-5    5.40582e-5    2.75479e-5    5.40582e-5   -0.896392      0.438708     
 12.4528      -0.896307      0.438877      2.76026e-5    5.41393e-5    2.76026e-5    5.41393e-5   -0.896307      0.438877     
 12.4529      -0.896223      0.439045      2.76574e-5    5.42205e-5    2.76574e-5    5.42205e-5   -0.896223      0.439045     
 12.453       -0.896138      0.439214      2.77123e-5    5.43019e-5    2.77123e-5    5.43019e-5   -0.896138      0.439214     
 12.4531      -0.896054      0.439383      2.77674e-5    5.43835e-5    2.77674e-5    5.43835e-5   -0.896054      0.439383     
 12.4532      -0.895969      0.439552      2.78226e-5    5.44652e-5    2.78226e-5    5.44652e-5   -0.895969      0.439552     
 12.4533      -0.895884      0.439722      2.78779e-5    5.4547e-5     2.78779e-5    5.4547e-5    -0.895884      0.439722     
 12.4534      -0.895799      0.439891      2.79333e-5    5.4629e-5     2.79333e-5    5.4629e-5    -0.895799      0.439891     
 12.4535      -0.895714      0.44006       2.79889e-5    5.47111e-5    2.79889e-5    5.47111e-5   -0.895714      0.44006      
 12.4536      -0.895629      0.44023       2.80446e-5    5.47934e-5    2.80446e-5    5.47934e-5   -0.895629      0.44023      
 12.4537      -0.895543      0.4404        2.81005e-5    5.48759e-5    2.81005e-5    5.48759e-5   -0.895543      0.4404       
 12.4538      -0.895458      0.44057       2.81565e-5    5.49585e-5    2.81565e-5    5.49585e-5   -0.895458      0.44057      
 12.4539      -0.895373      0.44074       2.82126e-5    5.50412e-5    2.82126e-5    5.50412e-5   -0.895373      0.44074      
 12.454       -0.895287      0.44091       2.82688e-5    5.51241e-5    2.82688e-5    5.51241e-5   -0.895287      0.44091      
 12.4541      -0.895201      0.44108       2.83252e-5    5.52072e-5    2.83252e-5    5.52072e-5   -0.895201      0.44108      
 12.4542      -0.895115      0.44125       2.83817e-5    5.52904e-5    2.83817e-5    5.52904e-5   -0.895115      0.44125      
 12.4543      -0.895029      0.441421      2.84384e-5    5.53738e-5    2.84384e-5    5.53738e-5   -0.895029      0.441421     
 12.4544      -0.894943      0.441591      2.84952e-5    5.54573e-5    2.84952e-5    5.54573e-5   -0.894943      0.441591     
 12.4545      -0.894857      0.441762      2.85521e-5    5.55409e-5    2.85521e-5    5.55409e-5   -0.894857      0.441762     
 12.4546      -0.894771      0.441933      2.86092e-5    5.56248e-5    2.86092e-5    5.56248e-5   -0.894771      0.441933     
 12.4547      -0.894685      0.442104      2.86664e-5    5.57088e-5    2.86664e-5    5.57088e-5   -0.894685      0.442104     
 12.4548      -0.894598      0.442275      2.87237e-5    5.57929e-5    2.87237e-5    5.57929e-5   -0.894598      0.442275     
 12.4549      -0.894512      0.442446      2.87812e-5    5.58772e-5    2.87812e-5    5.58772e-5   -0.894512      0.442446     
 12.455       -0.894425      0.442618      2.88388e-5    5.59616e-5    2.88388e-5    5.59616e-5   -0.894425      0.442618     
 12.4551      -0.894338      0.442789      2.88965e-5    5.60462e-5    2.88965e-5    5.60462e-5   -0.894338      0.442789     
 12.4552      -0.894251      0.442961      2.89544e-5    5.6131e-5     2.89544e-5    5.6131e-5    -0.894251      0.442961     
 12.4553      -0.894164      0.443133      2.90124e-5    5.62159e-5    2.90124e-5    5.62159e-5   -0.894164      0.443133     
 12.4554      -0.894077      0.443304      2.90706e-5    5.6301e-5     2.90706e-5    5.6301e-5    -0.894077      0.443304     
 12.4555      -0.89399       0.443476      2.91289e-5    5.63862e-5    2.91289e-5    5.63862e-5   -0.89399       0.443476     
 12.4556      -0.893903      0.443649      2.91873e-5    5.64716e-5    2.91873e-5    5.64716e-5   -0.893903      0.443649     
 12.4557      -0.893815      0.443821      2.92459e-5    5.65572e-5    2.92459e-5    5.65572e-5   -0.893815      0.443821     
 12.4558      -0.893728      0.443993      2.93046e-5    5.66429e-5    2.93046e-5    5.66429e-5   -0.893728      0.443993     
 12.4559      -0.89364       0.444166      2.93635e-5    5.67288e-5    2.93635e-5    5.67288e-5   -0.89364       0.444166     
 12.456       -0.893552      0.444338      2.94225e-5    5.68148e-5    2.94225e-5    5.68148e-5   -0.893552      0.444338     
 12.4561      -0.893465      0.444511      2.94817e-5    5.6901e-5     2.94817e-5    5.6901e-5    -0.893465      0.444511     
 12.4562      -0.893377      0.444684      2.95409e-5    5.69873e-5    2.95409e-5    5.69873e-5   -0.893377      0.444684     
 12.4563      -0.893289      0.444857      2.96004e-5    5.70739e-5    2.96004e-5    5.70739e-5   -0.893289      0.444857     
 12.4564      -0.8932        0.44503       2.96599e-5    5.71605e-5    2.96599e-5    5.71605e-5   -0.8932        0.44503      
 12.4565      -0.893112      0.445203      2.97197e-5    5.72474e-5    2.97197e-5    5.72474e-5   -0.893112      0.445203     
 12.4566      -0.893024      0.445377      2.97795e-5    5.73344e-5    2.97795e-5    5.73344e-5   -0.893024      0.445377     
 12.4567      -0.892935      0.44555       2.98395e-5    5.74215e-5    2.98395e-5    5.74215e-5   -0.892935      0.44555      
 12.4568      -0.892847      0.445724      2.98997e-5    5.75088e-5    2.98997e-5    5.75088e-5   -0.892847      0.445724     
 12.4569      -0.892758      0.445898      2.996e-5      5.75963e-5    2.996e-5      5.75963e-5   -0.892758      0.445898     
 12.457       -0.892669      0.446072      3.00204e-5    5.7684e-5     3.00204e-5    5.7684e-5    -0.892669      0.446072     
 12.4571      -0.89258       0.446246      3.0081e-5     5.77718e-5    3.0081e-5     5.77718e-5   -0.89258       0.446246     
 12.4572      -0.892491      0.44642       3.01417e-5    5.78597e-5    3.01417e-5    5.78597e-5   -0.892491      0.44642      
 12.4573      -0.892402      0.446594      3.02026e-5    5.79479e-5    3.02026e-5    5.79479e-5   -0.892402      0.446594     
 12.4574      -0.892313      0.446769      3.02637e-5    5.80362e-5    3.02637e-5    5.80362e-5   -0.892313      0.446769     
 12.4575      -0.892223      0.446943      3.03248e-5    5.81246e-5    3.03248e-5    5.81246e-5   -0.892223      0.446943     
 12.4576      -0.892134      0.447118      3.03862e-5    5.82133e-5    3.03862e-5    5.82133e-5   -0.892134      0.447118     
 12.4577      -0.892044      0.447293      3.04476e-5    5.83021e-5    3.04476e-5    5.83021e-5   -0.892044      0.447293     
 12.4578      -0.891954      0.447468      3.05092e-5    5.8391e-5     3.05092e-5    5.8391e-5    -0.891954      0.447468     
 12.4579      -0.891865      0.447643      3.0571e-5     5.84802e-5    3.0571e-5     5.84802e-5   -0.891865      0.447643     
 12.458       -0.891775      0.447818      3.06329e-5    5.85695e-5    3.06329e-5    5.85695e-5   -0.891775      0.447818     
 12.4581      -0.891685      0.447993      3.0695e-5     5.86589e-5    3.0695e-5     5.86589e-5   -0.891685      0.447993     
 12.4582      -0.891595      0.448169      3.07572e-5    5.87485e-5    3.07572e-5    5.87485e-5   -0.891595      0.448169     
 12.4583      -0.891504      0.448344      3.08196e-5    5.88383e-5    3.08196e-5    5.88383e-5   -0.891504      0.448344     
 12.4584      -0.891414      0.44852       3.08821e-5    5.89283e-5    3.08821e-5    5.89283e-5   -0.891414      0.44852      
 12.4585      -0.891323      0.448696      3.09448e-5    5.90184e-5    3.09448e-5    5.90184e-5   -0.891323      0.448696     
 12.4586      -0.891233      0.448872      3.10076e-5    5.91087e-5    3.10076e-5    5.91087e-5   -0.891233      0.448872     
 12.4587      -0.891142      0.449048      3.10706e-5    5.91992e-5    3.10706e-5    5.91992e-5   -0.891142      0.449048     
 12.4588      -0.891051      0.449224      3.11337e-5    5.92899e-5    3.11337e-5    5.92899e-5   -0.891051      0.449224     
 12.4589      -0.89096       0.449401      3.1197e-5     5.93807e-5    3.1197e-5     5.93807e-5   -0.89096       0.449401     
 12.459       -0.890869      0.449577      3.12605e-5    5.94717e-5    3.12605e-5    5.94717e-5   -0.890869      0.449577     
 12.4591      -0.890778      0.449754      3.1324e-5     5.95628e-5    3.1324e-5     5.95628e-5   -0.890778      0.449754     
 12.4592      -0.890687      0.449931      3.13878e-5    5.96541e-5    3.13878e-5    5.96541e-5   -0.890687      0.449931     
 12.4593      -0.890595      0.450108      3.14517e-5    5.97456e-5    3.14517e-5    5.97456e-5   -0.890595      0.450108     
 12.4594      -0.890504      0.450285      3.15158e-5    5.98373e-5    3.15158e-5    5.98373e-5   -0.890504      0.450285     
 12.4595      -0.890412      0.450462      3.158e-5      5.99291e-5    3.158e-5      5.99291e-5   -0.890412      0.450462     
 12.4596      -0.890321      0.450639      3.16443e-5    6.00211e-5    3.16443e-5    6.00211e-5   -0.890321      0.450639     
 12.4597      -0.890229      0.450816      3.17089e-5    6.01133e-5    3.17089e-5    6.01133e-5   -0.890229      0.450816     
 12.4598      -0.890137      0.450994      3.17736e-5    6.02057e-5    3.17736e-5    6.02057e-5   -0.890137      0.450994     
 12.4599      -0.890045      0.451172      3.18384e-5    6.02982e-5    3.18384e-5    6.02982e-5   -0.890045      0.451172     
 12.46        -0.889953      0.45135       3.19034e-5    6.03909e-5    3.19034e-5    6.03909e-5   -0.889953      0.45135      
 12.4601      -0.88986       0.451528      3.19686e-5    6.04838e-5    3.19686e-5    6.04838e-5   -0.88986       0.451528     
 12.4602      -0.889768      0.451706      3.20339e-5    6.05769e-5    3.20339e-5    6.05769e-5   -0.889768      0.451706     
 12.4603      -0.889675      0.451884      3.20994e-5    6.06701e-5    3.20994e-5    6.06701e-5   -0.889675      0.451884     
 12.4604      -0.889583      0.452062      3.2165e-5     6.07635e-5    3.2165e-5     6.07635e-5   -0.889583      0.452062     
 12.4605      -0.88949       0.452241      3.22308e-5    6.08571e-5    3.22308e-5    6.08571e-5   -0.88949       0.452241     
 12.4606      -0.889397      0.452419      3.22968e-5    6.09508e-5    3.22968e-5    6.09508e-5   -0.889397      0.452419     
 12.4607      -0.889304      0.452598      3.23629e-5    6.10448e-5    3.23629e-5    6.10448e-5   -0.889304      0.452598     
 12.4608      -0.889211      0.452777      3.24292e-5    6.11389e-5    3.24292e-5    6.11389e-5   -0.889211      0.452777     
 12.4609      -0.889118      0.452956      3.24956e-5    6.12332e-5    3.24956e-5    6.12332e-5   -0.889118      0.452956     
 12.461       -0.889024      0.453135      3.25622e-5    6.13276e-5    3.25622e-5    6.13276e-5   -0.889024      0.453135     
 12.4611      -0.888931      0.453315      3.2629e-5     6.14223e-5    3.2629e-5     6.14223e-5   -0.888931      0.453315     
 12.4612      -0.888837      0.453494      3.26959e-5    6.15171e-5    3.26959e-5    6.15171e-5   -0.888837      0.453494     
 12.4613      -0.888744      0.453674      3.2763e-5     6.16121e-5    3.2763e-5     6.16121e-5   -0.888744      0.453674     
 12.4614      -0.88865       0.453853      3.28303e-5    6.17073e-5    3.28303e-5    6.17073e-5   -0.88865       0.453853     
 12.4615      -0.888556      0.454033      3.28977e-5    6.18027e-5    3.28977e-5    6.18027e-5   -0.888556      0.454033     
 12.4616      -0.888462      0.454213      3.29653e-5    6.18982e-5    3.29653e-5    6.18982e-5   -0.888462      0.454213     
 12.4617      -0.888368      0.454393      3.30331e-5    6.19939e-5    3.30331e-5    6.19939e-5   -0.888368      0.454393     
 12.4618      -0.888273      0.454573      3.3101e-5     6.20898e-5    3.3101e-5     6.20898e-5   -0.888273      0.454573     
 12.4619      -0.888179      0.454754      3.31691e-5    6.21859e-5    3.31691e-5    6.21859e-5   -0.888179      0.454754     
 12.462       -0.888084      0.454934      3.32374e-5    6.22822e-5    3.32374e-5    6.22822e-5   -0.888084      0.454934     
 12.4621      -0.88799       0.455115      3.33058e-5    6.23787e-5    3.33058e-5    6.23787e-5   -0.88799       0.455115     
 12.4622      -0.887895      0.455296      3.33744e-5    6.24753e-5    3.33744e-5    6.24753e-5   -0.887895      0.455296     
 12.4623      -0.8878        0.455477      3.34432e-5    6.25721e-5    3.34432e-5    6.25721e-5   -0.8878        0.455477     
 12.4624      -0.887705      0.455658      3.35121e-5    6.26691e-5    3.35121e-5    6.26691e-5   -0.887705      0.455658     
 12.4625      -0.88761       0.455839      3.35812e-5    6.27663e-5    3.35812e-5    6.27663e-5   -0.88761       0.455839     
 12.4626      -0.887515      0.45602       3.36505e-5    6.28637e-5    3.36505e-5    6.28637e-5   -0.887515      0.45602      
 12.4627      -0.887419      0.456202      3.372e-5      6.29612e-5    3.372e-5      6.29612e-5   -0.887419      0.456202     
 12.4628      -0.887324      0.456383      3.37896e-5    6.3059e-5     3.37896e-5    6.3059e-5    -0.887324      0.456383     
 12.4629      -0.887228      0.456565      3.38594e-5    6.31569e-5    3.38594e-5    6.31569e-5   -0.887228      0.456565     
 12.463       -0.887132      0.456747      3.39294e-5    6.3255e-5     3.39294e-5    6.3255e-5    -0.887132      0.456747     
 12.4631      -0.887037      0.456929      3.39995e-5    6.33533e-5    3.39995e-5    6.33533e-5   -0.887037      0.456929     
 12.4632      -0.886941      0.457111      3.40698e-5    6.34518e-5    3.40698e-5    6.34518e-5   -0.886941      0.457111     