! This file was generated by CST Filter Designer 3D
! _________________________________________________
! Date:                         05.11.2025 19:28:43

# MHZ S RI R 50
!              Frequency                 Re(S11)                 Im(S11)                 Re(S21)                 Im(S21)                 Re(S12)                 Im(S12)                 Re(S22)                 Im(S22)
                   11440      -0.787836792249351       0.604904645508086   -0.000118506016082462   -0.000142459126209575   -0.000118506016082462   -0.000142459126209575      -0.787836792249351       0.604904645508086
                 11440.2      -0.786954121081043       0.606003061942948   -0.000119626318840632   -0.000143370409691516   -0.000119626318840632   -0.000143370409691516      -0.786954121081043       0.606003061942948
                 11440.4        -0.7860658871308       0.607105068039312   -0.000120758968630882   -0.000144287935633099   -0.000120758968630882   -0.000144287935633099        -0.7860658871308       0.607105068039312
                 11440.6      -0.785172043119597       0.608210677685413   -0.000121904117413258   -0.000145211737531573   -0.000121904117413258   -0.000145211737531573      -0.785172043119597       0.608210677685413
                 11440.8      -0.784272541260627        0.60931990478693     -0.0001230619191333   -0.000146141848682411     -0.0001230619191333   -0.000146141848682411      -0.784272541260627        0.60931990478693
                   11441      -0.783367333252679       0.610432763265774    -0.00012423252974726   -0.000147078302164199    -0.00012423252974726   -0.000147078302164199      -0.783367333252679       0.610432763265774
                 11441.2      -0.782456370273422       0.611549267058822   -0.000125416107247538   -0.000148021130823019   -0.000125416107247538   -0.000148021130823019      -0.782456370273422       0.611549267058822
                 11441.4      -0.781539602972594       0.612669430116596   -0.000126612811688331   -0.000148970367256319   -0.000126612811688331   -0.000148970367256319      -0.781539602972594       0.612669430116596
                 11441.6        -0.7806169814651       0.613793266401891   -0.000127822805211503   -0.000149926043796231   -0.000127822805211503   -0.000149926043796231        -0.7806169814651       0.613793266401891
                 11441.8       -0.77968845532394        0.61492078988843   -0.000129046252072743    -0.00015088819249243   -0.000129046252072743    -0.00015088819249243       -0.77968845532394        0.61492078988843
                   11442      -0.778753973573147       0.616052014559337   -0.000130283318667797   -0.000151856845094297   -0.000130283318667797   -0.000151856845094297      -0.778753973573147       0.616052014559337
                 11442.2       -0.77781348468047       0.617186954405732   -0.000131534173559102   -0.000152832033032677   -0.000131534173559102   -0.000152832033032677       -0.77781348468047       0.617186954405732
                 11442.4      -0.776866936550076        0.61832562342513   -0.000132798987502455   -0.000153813787400901   -0.000132798987502455   -0.000153813787400901      -0.776866936550076        0.61832562342513
                 11442.6      -0.775914276515042       0.619468035619894   -0.000134077933474011   -0.000154802138935305   -0.000134077933474011   -0.000154802138935305      -0.775914276515042       0.619468035619894
                 11442.8      -0.774955451329786       0.620614204995586   -0.000135371186697418   -0.000155797117995071   -0.000135371186697418   -0.000155797117995071      -0.774955451329786       0.620614204995586
                   11443      -0.773990407162349       0.621764145559292   -0.000136678924671174   -0.000156798754541463   -0.000136678924671174   -0.000156798754541463      -0.773990407162349       0.621764145559292
                 11443.2      -0.773019089586575       0.622917871317882   -0.000138001327196162   -0.000157807078116377   -0.000138001327196162   -0.000157807078116377      -0.773019089586575       0.622917871317882
                 11443.4      -0.772041443574166       0.624075396276209   -0.000139338576403353   -0.000158822117820226   -0.000139338576403353   -0.000158822117820226      -0.772041443574166       0.624075396276209
                 11443.6      -0.771057413486606       0.625236734435268   -0.000140690856781715   -0.000159843902289131   -0.000140690856781715   -0.000159843902289131      -0.771057413486606       0.625236734435268
                 11443.8      -0.770066943066938       0.626401899790319    -0.00014205835520629   -0.000160872459671415    -0.00014205835520629   -0.000160872459671415      -0.770066943066938       0.626401899790319
                   11444      -0.769069975431466       0.627570906328887   -0.000143441260966386   -0.000161907817603314   -0.000143441260966386   -0.000161907817603314      -0.769069975431466       0.627570906328887
                 11444.2      -0.768066453061264       0.628743768028772   -0.000144839765793981   -0.000162950003183983   -0.000144839765793981   -0.000162950003183983      -0.768066453061264       0.628743768028772
                 11444.4      -0.767056317793596       0.629920498855951   -0.000146254063892217   -0.000163999042949693   -0.000146254063892217   -0.000163999042949693      -0.767056317793596       0.629920498855951
                 11444.6      -0.766039510813165       0.631101112762448   -0.000147684351964078   -0.000165054962847243   -0.000147684351964078   -0.000165054962847243      -0.766039510813165       0.631101112762448
                 11444.8      -0.765015972643253        0.63228562368411   -0.000149130829241139   -0.000166117788206543   -0.000149130829241139   -0.000166117788206543      -0.765015972643253        0.63228562368411
                   11445      -0.763985643136699        0.63347404553834   -0.000150593697512465   -0.000167187543712357   -0.000150593697512465   -0.000167187543712357      -0.763985643136699        0.63347404553834
                 11445.2      -0.762948461466723       0.634666392221767   -0.000152073161153615   -0.000168264253375191   -0.000152073161153615   -0.000168264253375191      -0.762948461466723       0.634666392221767
                 11445.4       -0.76190436611765       0.635862677607798   -0.000153569427155669   -0.000169347940501244   -0.000153569427155669   -0.000169347940501244       -0.76190436611765       0.635862677607798
                 11445.6      -0.760853294875431       0.637062915544156   -0.000155082705154414   -0.000170438627661494   -0.000155082705154414   -0.000170438627661494      -0.760853294875431       0.637062915544156
                 11445.8      -0.759795184818018       0.638267119850334   -0.000156613207459565   -0.000171536336659834   -0.000156613207459565   -0.000171536336659834      -0.759795184818018       0.638267119850334
                   11446      -0.758729972305621       0.639475304314932   -0.000158161149083991   -0.000172641088500198   -0.000158161149083991   -0.000172641088500198      -0.758729972305621       0.639475304314932
                 11446.2       -0.75765759297079       0.640687482692941    -0.00015972674777299   -0.000173752903352717    -0.00015972674777299   -0.000173752903352717       -0.75765759297079       0.640687482692941
                 11446.4      -0.756577981708287       0.641903668702983   -0.000161310224033638   -0.000174871800518887   -0.000161310224033638   -0.000174871800518887      -0.756577981708287       0.641903668702983
                 11446.6      -0.755491072664888       0.643123876024389   -0.000162911801164022   -0.000175997798395606   -0.000162911801164022   -0.000175997798395606      -0.755491072664888       0.643123876024389
                 11446.8      -0.754396799228922       0.644348118294274   -0.000164531705282557    -0.00017713091443821   -0.000164531705282557    -0.00017713091443821      -0.754396799228922       0.644348118294274
                   11447      -0.753295094019713       0.645576409104458   -0.000166170165357175   -0.000178271165122338   -0.000166170165357175   -0.000178271165122338      -0.753295094019713       0.645576409104458
                 11447.2       -0.75218588887678       0.646808761998364   -0.000167827413234535   -0.000179418565904713   -0.000167827413234535   -0.000179418565904713       -0.75218588887678       0.646808761998364
                 11447.4      -0.751069114848935       0.648045190467753   -0.000169503683669057   -0.000180573131182687   -0.000169503683669057   -0.000180573131182687      -0.751069114848935       0.648045190467753
                 11447.6      -0.749944702183157       0.649285707949398   -0.000171199214351883   -0.000181734874252611   -0.000171199214351883   -0.000181734874252611      -0.749944702183157       0.649285707949398
                 11447.8      -0.748812580313243       0.650530327821709   -0.000172914245939785   -0.000182903807267016   -0.000172914245939785   -0.000182903807267016      -0.748812580313243       0.650530327821709
                   11448      -0.747672677848384        0.65177906340114   -0.000174649022083731   -0.000184079941190409   -0.000174649022083731   -0.000184079941190409      -0.747672677848384        0.65177906340114
                 11448.2      -0.746524922561429       0.653031927938621   -0.000176403789457458   -0.000185263285753876   -0.000176403789457458   -0.000185263285753876      -0.746524922561429       0.653031927938621
                 11448.4      -0.745369241377042       0.654288934615788   -0.000178178797785682   -0.000186453849408266   -0.000178178797785682   -0.000186453849408266      -0.745369241377042       0.654288934615788
                 11448.6      -0.744205560359588       0.655550096541185   -0.000179974299872187   -0.000187651639276063   -0.000179974299872187   -0.000187651639276063      -0.744205560359588       0.655550096541185
                 11448.8      -0.743033804700898       0.656815426746262   -0.000181790551627493   -0.000188856661101753   -0.000181790551627493   -0.000188856661101753      -0.743033804700898       0.656815426746262
                   11449      -0.741853898707752       0.658084938181356   -0.000183627812096353   -0.000190068919200834   -0.000183627812096353   -0.000190068919200834      -0.741853898707752       0.658084938181356
                 11449.2      -0.740665765789211       0.659358643711464   -0.000185486343484789   -0.000191288416407252   -0.000185486343484789   -0.000191288416407252      -0.740665765789211       0.659358643711464
                 11449.4      -0.739469328443677       0.660636556111982    -0.00018736641118684   -0.000192515154019366    -0.00018736641118684   -0.000192515154019366      -0.739469328443677       0.660636556111982
                 11449.6      -0.738264508245792       0.661918688064247   -0.000189268283810808   -0.000193749131744292   -0.000189268283810808   -0.000193749131744292      -0.738264508245792       0.661918688064247
                 11449.8      -0.737051225833091       0.663205052150971   -0.000191192233205059   -0.000194990347640637   -0.000191192233205059   -0.000194990347640637      -0.737051225833091       0.663205052150971
                   11450      -0.735829400892398       0.664495660851589   -0.000193138534483375   -0.000196238798059612   -0.000193138534483375   -0.000196238798059612      -0.735829400892398       0.664495660851589
                 11450.2      -0.734598952146049       0.665790526537397   -0.000195107466049653   -0.000197494477584378   -0.000195107466049653   -0.000197494477584378      -0.734598952146049       0.665790526537397
                 11450.4      -0.733359797337848        0.66708966146659   -0.000197099309622059   -0.000198757378967674   -0.000197099309622059   -0.000198757378967674      -0.733359797337848        0.66708966146659
                 11450.6      -0.732111853218756       0.668393077779186   -0.000199114350256562   -0.000200027493067668   -0.000199114350256562   -0.000200027493067668      -0.732111853218756       0.668393077779186
                 11450.8      -0.730855035532392       0.669700787491735   -0.000201152876369685   -0.000201304808781918   -0.000201152876369685   -0.000201304808781918      -0.730855035532392       0.669700787491735
                   11451      -0.729589259000235       0.671012802491938   -0.000203215179760567   -0.000202589312979475   -0.000203215179760567   -0.000202589312979475      -0.729589259000235       0.671012802491938
                 11451.2      -0.728314437306626       0.672329134533048   -0.000205301555632119   -0.000203880990430993   -0.000205301555632119   -0.000203880990430993      -0.728314437306626       0.672329134533048
                 11451.4      -0.727030483083428       0.673649795228195   -0.000207412302611439   -0.000205179823736931   -0.000207412302611439   -0.000205179823736931      -0.727030483083428       0.673649795228195
                 11451.6      -0.725737307894493       0.674974796044472   -0.000209547722769157   -0.000206485793253626   -0.000209547722769157   -0.000206485793253626      -0.725737307894493       0.674974796044472
                 11451.8      -0.724434822219839       0.676304148296875   -0.000211708121637822   -0.000207798877017289   -0.000211708121637822   -0.000207798877017289      -0.724434822219839       0.676304148296875
                   11452      -0.723122935439534        0.67763786314208   -0.000213893808229208   -0.000209119050665865   -0.000213893808229208   -0.000209119050665865      -0.723122935439534        0.67763786314208
                 11452.2      -0.721801555817332       0.678975951572016    -0.00021610509505044   -0.000210446287358645    -0.00021610509505044   -0.000210446287358645      -0.721801555817332       0.678975951572016
                 11452.4      -0.720470590483979       0.680318424407291   -0.000218342298118947   -0.000211780557693653   -0.000218342298118947   -0.000211780557693653      -0.720470590483979       0.680318424407291
                 11452.6      -0.719129945420249         0.6816652922904   -0.000220605736976059   -0.000213121829622688   -0.000220605736976059   -0.000213121829622688      -0.719129945420249         0.6816652922904
                 11452.8      -0.717779525439702       0.683016565678734   -0.000222895734699191   -0.000214470068363947   -0.000222895734699191   -0.000214470068363947      -0.717779525439702       0.683016565678734
                   11453      -0.716419234171111       0.684372254837394   -0.000225212617912562    -0.00021582523631224   -0.000225212617912562    -0.00021582523631224      -0.716419234171111       0.684372254837394
                 11453.2      -0.715048974040566       0.685732369831826   -0.000227556716796378   -0.000217187292946695   -0.000227556716796378   -0.000217187292946695      -0.715048974040566       0.685732369831826
                 11453.4      -0.713668646253311       0.687096920520185   -0.000229928365094234   -0.000218556194735853   -0.000229928365094234   -0.000218556194735853      -0.713668646253311       0.687096920520185
                 11453.6      -0.712278150775205       0.688465916545538   -0.000232327900118839   -0.000219931895040157   -0.000232327900118839   -0.000219931895040157      -0.712278150775205       0.688465916545538
                 11453.8       -0.71087738631386        0.68983936732783   -0.000234755662755837   -0.000221314344011752   -0.000234755662755837   -0.000221314344011752       -0.71087738631386        0.68983936732783
                   11454      -0.709466250299496       0.691217282055562    -0.00023721199746553   -0.000222703488491437    -0.00023721199746553   -0.000222703488491437      -0.709466250299496       0.691217282055562
                 11454.2      -0.708044638865404       0.692599669677295   -0.000239697252282585   -0.000224099271902842   -0.000239697252282585   -0.000224099271902842      -0.708044638865404       0.692599669677295
                 11454.4      -0.706612446828049       0.693986538892892   -0.000242211778813495   -0.000225501634143684   -0.000242211778813495   -0.000225501634143684      -0.706612446828049       0.693986538892892
                 11454.6      -0.705169567666842       0.695377898144497    -0.00024475593223163   -0.000226910511474028    -0.00024475593223163   -0.000226910511474028      -0.705169567666842       0.695377898144497
                 11454.8      -0.703715893503548       0.696773755607255   -0.000247330071269802   -0.000228325836401484   -0.000247330071269802   -0.000228325836401484      -0.703715893503548       0.696773755607255
                   11455      -0.702251315081295       0.698174119179778   -0.000249934558210199   -0.000229747537563296   -0.000249934558210199   -0.000229747537563296      -0.702251315081295       0.698174119179778
                 11455.2      -0.700775721743261       0.699578996474282   -0.000252569758871436   -0.000231175539605171   -0.000252569758871436   -0.000231175539605171      -0.700775721743261       0.699578996474282
                 11455.4      -0.699289001410878       0.700988394806539   -0.000255236042592829   -0.000232609763056916   -0.000255236042592829   -0.000232609763056916      -0.699289001410878       0.700988394806539
                 11455.6      -0.697791040561735       0.702402321185431   -0.000257933782215381   -0.000234050124204621   -0.000257933782215381   -0.000234050124204621      -0.697791040561735       0.702402321185431
                 11455.8      -0.696281724207014       0.703820782302276   -0.000260663354059596   -0.000235496534959455   -0.000260663354059596   -0.000235496534959455      -0.696281724207014       0.703820782302276
                   11456      -0.694760935868539       0.705243784519808   -0.000263425137899793   -0.000236948902722928   -0.000263425137899793   -0.000236948902722928      -0.694760935868539       0.705243784519808
                 11456.2      -0.693228557555415       0.706671333860829   -0.000266219516934751   -0.000238407130248522   -0.000266219516934751   -0.000238407130248522      -0.693228557555415       0.706671333860829
                 11456.4      -0.691684469740198       0.708103435996576   -0.000269046877754583   -0.000239871115499682   -0.000269046877754583   -0.000239871115499682      -0.691684469740198       0.708103435996576
                 11456.6      -0.690128551334667       0.709540096234694   -0.000271907610303493   -0.000241340751503991   -0.000271907610303493   -0.000241340751503991      -0.690128551334667       0.709540096234694
                 11456.8      -0.688560679665084       0.710981319506931   -0.000274802107838383   -0.000242815926203549   -0.000274802107838383   -0.000242815926203549      -0.688560679665084       0.710981319506931
                   11457       -0.68698073044712       0.712427110356356   -0.000277730766882778   -0.000244296522301294   -0.000277730766882778   -0.000244296522301294       -0.68698073044712       0.712427110356356
                 11457.2      -0.685388577760161       0.713877472924341   -0.000280693987176282   -0.000245782417103425   -0.000280693987176282   -0.000245782417103425      -0.685388577760161       0.713877472924341
                 11457.4      -0.683784094021234       0.715332410937071   -0.000283692171618923   -0.000247273482357628   -0.000283692171618923   -0.000247273482357628      -0.683784094021234       0.715332410937071
                 11457.6      -0.682167149958422       0.716791927691689   -0.000286725726210323   -0.000248769584087097   -0.000286725726210323   -0.000248769584087097      -0.682167149958422       0.716791927691689
                 11457.8      -0.680537614583758       0.718256026042048   -0.000289795059983429   -0.000250270582420291   -0.000289795059983429   -0.000250270582420291      -0.680537614583758       0.718256026042048
                   11458      -0.678895355165667       0.719724708383993    -0.00029290058493238   -0.000251776331416242    -0.00029290058493238   -0.000251776331416242      -0.678895355165667       0.719724708383993
                 11458.2      -0.677240237200812       0.721197976640286   -0.000296042715934468   -0.000253286678885448   -0.000296042715934468   -0.000253286678885448      -0.677240237200812       0.721197976640286
                 11458.4      -0.675572124385469       0.722675832245026   -0.000299221870665634   -0.000254801466206144   -0.000299221870665634   -0.000254801466206144      -0.675572124385469       0.722675832245026
                 11458.6      -0.673890878586298        0.72415827612767   -0.000302438469509404   -0.000256320528135955   -0.000302438469509404   -0.000256320528135955      -0.673890878586298        0.72415827612767
                 11458.8      -0.672196359810677       0.725645308696475   -0.000305692935458588   -0.000257843692618685   -0.000305692935458588   -0.000257843692618685      -0.672196359810677       0.725645308696475
                   11459       -0.67048842617629       0.727136929821612   -0.000308985694009975    -0.00025937078058642   -0.000308985694009975    -0.00025937078058642       -0.67048842617629       0.727136929821612
                 11459.2      -0.668766933880331       0.728633138817612   -0.000312317173050936   -0.000260901605756511   -0.000312317173050936   -0.000260901605756511      -0.668766933880331       0.728633138817612
                 11459.4      -0.667031737167958       0.730133934425428   -0.000315687802738215   -0.000262435974423651   -0.000315687802738215   -0.000262435974423651      -0.667031737167958       0.730133934425428
                 11459.6      -0.665282688300223       0.731639314793889   -0.000319098015368073   -0.000263973685246767   -0.000319098015368073   -0.000263973685246767      -0.665282688300223       0.731639314793889
                 11459.8       -0.66351963752139       0.733149277460614   -0.000322548245237496   -0.000265514529030665   -0.000322548245237496   -0.000265514529030665       -0.66351963752139       0.733149277460614
                   11460      -0.661742433025582       0.734663819332376   -0.000326038928496137   -0.000267058288502421   -0.000326038928496137   -0.000267058288502421      -0.661742433025582       0.734663819332376
                 11460.2      -0.659950920922799       0.736182936664883   -0.000329570502988396   -0.000268604738082334   -0.000329570502988396   -0.000268604738082334      -0.659950920922799       0.736182936664883
                 11460.4      -0.658144945204288        0.73770662504193   -0.000333143408085209   -0.000270153643649393   -0.000333143408085209   -0.000270153643649393      -0.658144945204288        0.73770662504193
                 11460.6      -0.656324347707239       0.739234879353942   -0.000336758084505027    -0.00027170476230115   -0.000336758084505027    -0.00027170476230115      -0.656324347707239       0.739234879353942
                 11460.8      -0.654488968078771       0.740767693775886   -0.000340414974123557   -0.000273257842107968   -0.000340414974123557   -0.000273257842107968      -0.654488968078771       0.740767693775886
                   11461      -0.652638643739242       0.742305061744499   -0.000344114519771564    -0.00027481262186148   -0.000344114519771564    -0.00027481262186148      -0.652638643739242       0.742305061744499
                 11461.2      -0.650773209844809       0.743846975934853   -0.000347857165020329   -0.000276368830817251   -0.000347857165020329   -0.000276368830817251      -0.650773209844809       0.743846975934853
                 11461.4      -0.648892499249295        0.74539342823619   -0.000351643353953997   -0.000277926188431504   -0.000351643353953997   -0.000277926188431504      -0.648892499249295        0.74539342823619
                 11461.6      -0.646996342465247       0.746944409727063   -0.000355473530928398    -0.00027948440409191   -0.000355473530928398    -0.00027948440409191      -0.646996342465247       0.746944409727063
                 11461.8      -0.645084567624295       0.748499910649674   -0.000359348140315419   -0.000281043176842265   -0.000359348140315419   -0.000281043176842265      -0.645084567624295       0.748499910649674
                   11462      -0.643157000436656       0.750059920383495   -0.000363267626232572   -0.000282602195101114   -0.000363267626232572   -0.000282602195101114      -0.643157000436656       0.750059920383495
                 11462.2      -0.641213464149915        0.75162442741802    -0.00036723243225668   -0.000284161136374127    -0.00036723243225668   -0.000284161136374127      -0.641213464149915        0.75162442741802
                 11462.4      -0.639253779506866       0.753193419324783   -0.000371243001121383   -0.000285719666960331   -0.000371243001121383   -0.000285719666960331      -0.639253779506866       0.753193419324783
                 11462.6      -0.637277764702669       0.754766882728401   -0.000375299774397135   -0.000287277441651943   -0.000375299774397135   -0.000287277441651943      -0.637277764702669       0.754766882728401
                 11462.8      -0.635285235340982       0.756344803276867   -0.000379403192153495   -0.000288834103427991   -0.000379403192153495   -0.000288834103427991      -0.635285235340982       0.756344803276867
                   11463      -0.633276004389378       0.757927165610801   -0.000383553692602221    -0.00029038928314145   -0.000383553692602221    -0.00029038928314145      -0.633276004389378       0.757927165610801
                 11463.2      -0.631249882133703       0.759513953331886   -0.000387751711720941   -0.000291942599200102   -0.000387751711720941   -0.000291942599200102      -0.631249882133703       0.759513953331886
                 11463.4      -0.629206676131665       0.761105148970222   -0.000391997682855812   -0.000293493657240869   -0.000391997682855812   -0.000293493657240869      -0.629206676131665       0.761105148970222
                 11463.6      -0.627146191165407       0.762700733950728   -0.000396292036302695   -0.000295042049797779   -0.000396292036302695   -0.000295042049797779      -0.627146191165407       0.762700733950728
                 11463.8      -0.625068229193039       0.764300688558576   -0.000400635198865816   -0.000296587355963563   -0.000400635198865816   -0.000296587355963563      -0.625068229193039       0.764300688558576
                   11464      -0.622972589299417       0.765904991903366     -0.0004050275933922   -0.000298129141044675     -0.0004050275933922   -0.000298129141044675      -0.622972589299417       0.765904991903366
                 11464.2      -0.620859067645689       0.767513621882386   -0.000409469638281764   -0.000299666956210086   -0.000409469638281764   -0.000299666956210086      -0.620859067645689       0.767513621882386
                 11464.4      -0.618727457417903       0.769126555142643   -0.000413961746971192   -0.000301200338133659   -0.000413961746971192   -0.000301200338133659      -0.618727457417903       0.769126555142643
                 11464.6      -0.616577548774577       0.770743767041704   -0.000418504327390583   -0.000302728808630231   -0.000418504327390583   -0.000302728808630231      -0.616577548774577       0.770743767041704
                 11464.8      -0.614409128793207       0.772365231607318   -0.000423097781391598   -0.000304251874285443   -0.000423097781391598   -0.000304251874285443      -0.614409128793207       0.772365231607318
                   11465      -0.612221981415572       0.773990921495829   -0.000427742504145989   -0.000305769026079513   -0.000427742504145989   -0.000305769026079513      -0.612221981415572       0.773990921495829
                 11465.2      -0.610015887392071       0.775620807949181   -0.000432438883512633   -0.000307279739004861   -0.000432438883512633   -0.000307279739004861      -0.610015887392071       0.775620807949181
                 11465.4       -0.60779062422474        0.77725486075069   -0.000437187299372287   -0.000308783471677949   -0.000437187299372287   -0.000308783471677949       -0.60779062422474        0.77725486075069
                 11465.6      -0.605545966109281       0.778893048179287   -0.000441988122927789   -0.000310279665945238   -0.000441988122927789   -0.000310279665945238      -0.605545966109281       0.778893048179287
                 11465.8      -0.603281683875619       0.780535336962494   -0.000446841715969103   -0.000311767746483744   -0.000446841715969103   -0.000311767746483744      -0.603281683875619       0.780535336962494
                   11466      -0.600997544927571        0.78218169222767   -0.000451748430100252   -0.000313247120395985   -0.000451748430100252   -0.000313247120395985      -0.600997544927571        0.78218169222767
                 11466.2      -0.598693313180908       0.783832077451954   -0.000456708605927897   -0.000314717176800012   -0.000456708605927897   -0.000314717176800012      -0.598693313180908       0.783832077451954
                 11466.4      -0.596368749000375       0.785486454410428   -0.000461722572208468   -0.000316177286414393   -0.000461722572208468   -0.000316177286414393      -0.596368749000375       0.785486454410428
                 11466.6       -0.59402360913527       0.787144783122714   -0.000466790644952777   -0.000317626801138676   -0.000466790644952777   -0.000317626801138676       -0.59402360913527       0.787144783122714
                 11466.8      -0.591657646653691       0.788807021797834   -0.000471913126485817   -0.000319065053629589   -0.000471913126485817   -0.000319065053629589      -0.591657646653691       0.788807021797834
                   11467      -0.589270610875412       0.790473126777307    -0.00047709030445974    -0.00032049135687334    -0.00047709030445974    -0.00032049135687334      -0.589270610875412       0.790473126777307