! This file was generated by CST Filter Designer 3D
! _________________________________________________
! Date:                         05.11.2025 19:47:40

# MHZ S RI R 50
!              Frequency                 Re(S11)                 Im(S11)                 Re(S21)                 Im(S21)                 Re(S12)                 Im(S12)                 Re(S22)                 Im(S22)
                   11440      -0.788048229000945       0.604637143472939   -0.000125364946013996   -0.000146387678763781   -0.000125364946013996   -0.000146387678763781      -0.788048229000945       0.604637143472939
                 11440.2      -0.787166577268559       0.605735076795389    -0.00012656254812016   -0.000147322317971818    -0.00012656254812016   -0.000147322317971818      -0.787166577268559       0.605735076795389
                 11440.4      -0.786279370227811       0.606836598799852   -0.000127773479540018   -0.000148263250057171   -0.000127773479540018   -0.000148263250057171      -0.786279370227811       0.606836598799852
                 11440.6      -0.785386560673651       0.607941723382138   -0.000128997905828899   -0.000149210505585893   -0.000128997905828899   -0.000149210505585893      -0.785386560673651       0.607941723382138
                 11440.8      -0.784488100894174       0.609050464455776   -0.000130235994723652   -0.000150164114813377   -0.000130235994723652   -0.000150164114813377      -0.784488100894174       0.609050464455776
                   11441      -0.783583942664007       0.610162835950806   -0.000131487916170582   -0.000151124107666187   -0.000131487916170582   -0.000151124107666187      -0.783583942664007       0.610162835950806
                 11441.2      -0.782674037237611       0.611278851812524   -0.000132753842353623     -0.0001520905137233   -0.000132753842353623     -0.0001520905137233      -0.782674037237611       0.611278851812524
                 11441.4      -0.781758335342482       0.612398526000168    -0.00013403394772276   -0.000153063362196738    -0.00013403394772276   -0.000153063362196738      -0.781758335342482       0.612398526000168
                 11441.6      -0.780836787172265       0.613521872485548   -0.000135328409022684   -0.000154042681911591   -0.000135328409022684   -0.000154042681911591      -0.780836787172265       0.613521872485548
                 11441.8      -0.779909342379697       0.614648905251716   -0.000136637405321787   -0.000155028501285466   -0.000136637405321787   -0.000155028501285466      -0.779909342379697       0.614648905251716
                   11442      -0.778975950069559       0.615779638291439   -0.000137961118041227   -0.000156020848307174   -0.000137961118041227   -0.000156020848307174      -0.778975950069559       0.615779638291439
                 11442.2      -0.778036558791378       0.616914085605809   -0.000139299730984444   -0.000157019750514902   -0.000139299730984444   -0.000157019750514902      -0.778036558791378       0.616914085605809
                 11442.4      -0.777091116532137       0.618052261202642   -0.000140653430366725   -0.000158025234973565   -0.000140653430366725   -0.000158025234973565      -0.777091116532137       0.618052261202642
                 11442.6      -0.776139570708795       0.619194179094949   -0.000142022404845131   -0.000159037328251563   -0.000142022404845131   -0.000159037328251563      -0.776139570708795       0.619194179094949
                 11442.8      -0.775181868160723       0.620339853299285   -0.000143406845548573   -0.000160056056396748   -0.000143406845548573   -0.000160056056396748      -0.775181868160723       0.620339853299285
                   11443       -0.77421795514201       0.621489297834089    -0.00014480694610815   -0.000161081444911699    -0.00014480694610815   -0.000161081444911699       -0.77421795514201       0.621489297834089
                 11443.2      -0.773247777313654       0.622642526717952   -0.000146222902687672   -0.000162113518728196   -0.000146222902687672   -0.000162113518728196      -0.773247777313654       0.622642526717952
                 11443.4      -0.772271279735642       0.623799553967823   -0.000147654914014388   -0.000163152302180933   -0.000147654914014388   -0.000163152302180933      -0.772271279735642       0.623799553967823
                 11443.6      -0.771288406858882       0.624960393597179   -0.000149103181409927    -0.00016419781898042   -0.000149103181409927    -0.00016419781898042      -0.771288406858882       0.624960393597179
                 11443.8      -0.770299102517009       0.626125059614156   -0.000150567908821448   -0.000165250092185082   -0.000150567908821448   -0.000165250092185082      -0.770299102517009       0.626125059614156
                   11444      -0.769303309918095        0.62729356601956     -0.0001520493028529   -0.000166309144172454     -0.0001520493028529   -0.000166309144172454      -0.769303309918095        0.62729356601956
                 11444.2      -0.768300971636183       0.628465926804887   -0.000153547572796533   -0.000167374996609566   -0.000153547572796533   -0.000167374996609566      -0.768300971636183       0.628465926804887
                 11444.4      -0.767292029602723       0.629642155950233   -0.000155062930664516    -0.00016844767042238   -0.000155062930664516    -0.00016844767042238      -0.767292029602723       0.629642155950233
                 11444.6       -0.76627642509784       0.630822267422176   -0.000156595591220738   -0.000169527185764344   -0.000156595591220738   -0.000169527185764344       -0.76627642509784       0.630822267422176
                 11444.8      -0.765254098741499       0.632006275171564   -0.000158145772012719   -0.000170613561983961   -0.000158145772012719   -0.000170613561983961      -0.765254098741499       0.632006275171564
                   11445      -0.764224990484493       0.633194193131258    -0.00015971369340367   -0.000171706817591416    -0.00015971369340367   -0.000171706817591416      -0.764224990484493       0.633194193131258
                 11445.2      -0.763189039599297       0.634386035213811   -0.000161299578604682     -0.0001728069702242   -0.000161299578604682     -0.0001728069702242      -0.763189039599297       0.634386035213811
                 11445.4      -0.762146184670809       0.635581815309033   -0.000162903653706939   -0.000173914036611663   -0.000162903653706939   -0.000173914036611663      -0.762146184670809       0.635581815309033
                 11445.6      -0.761096363586889       0.636781547281543   -0.000164526147714107   -0.000175028032538566   -0.000164526147714107   -0.000175028032538566      -0.761096363586889       0.636781547281543
                 11445.8      -0.760039513528762       0.637985244968233   -0.000166167292574777   -0.000176148972807542   -0.000166167292574777   -0.000176148972807542      -0.760039513528762       0.637985244968233
                   11446      -0.758975570961291       0.639192922175616   -0.000167827323214893   -0.000177276871200392   -0.000167827323214893   -0.000177276871200392      -0.758975570961291       0.639192922175616
                 11446.2      -0.757904471623084       0.640404592677127   -0.000169506477570266   -0.000178411740438277   -0.000169506477570266   -0.000178411740438277      -0.757904471623084       0.640404592677127
                 11446.4       -0.75682615051639       0.641620270210374   -0.000171204996619144   -0.000179553592140747   -0.000171204996619144   -0.000179553592140747       -0.75682615051639       0.641620270210374
                 11446.6      -0.755740541896922       0.642839968474223   -0.000172923124414673   -0.000180702436783502   -0.000172923124414673   -0.000180702436783502      -0.755740541896922       0.642839968474223
                 11446.8       -0.75464757926342         0.6440637011259   -0.000174661108117451   -0.000181858283654986   -0.000174661108117451   -0.000181858283654986       -0.75464757926342         0.6440637011259
                   11447      -0.753547195347117       0.645291481777916   -0.000176419198027933   -0.000183021140811632   -0.000176419198027933   -0.000183021140811632      -0.753547195347117       0.645291481777916
                 11447.2      -0.752439322100968       0.646523323994981   -0.000178197647618875   -0.000184191015031877   -0.000178197647618875   -0.000184191015031877      -0.752439322100968       0.646523323994981
                 11447.4      -0.751323890688762       0.647759241290757    -0.00017999671356757   -0.000185367911768745    -0.00017999671356757   -0.000185367911768745      -0.751323890688762       0.647759241290757
                 11447.6      -0.750200831474035       0.648999247124545   -0.000181816655788019   -0.000186551835101101   -0.000181816655788019   -0.000186551835101101      -0.750200831474035       0.648999247124545
                 11447.8      -0.749070074008738       0.650243354897925   -0.000183657737463026   -0.000187742787683512   -0.000183657737463026   -0.000187742787683512      -0.749070074008738       0.650243354897925
                   11448      -0.747931547021842       0.651491577951183   -0.000185520225075943   -0.000188940770694556   -0.000185520225075943   -0.000188940770694556      -0.747931547021842       0.651491577951183
                 11448.2       -0.74678517840763       0.652743929559755   -0.000187404388442393   -0.000190145783783741   -0.000187404388442393   -0.000190145783783741       -0.74678517840763       0.652743929559755
                 11448.4      -0.745630895213879       0.654000422930474   -0.000189310500741614   -0.000191357825016807   -0.000189310500741614   -0.000191357825016807      -0.745630895213879       0.654000422930474
                 11448.6      -0.744468623629777       0.655261071197792   -0.000191238838547654   -0.000192576890819523   -0.000191238838547654   -0.000192576890819523      -0.744468623629777       0.655261071197792
                 11448.8      -0.743298288973717       0.656525887419797   -0.000193189681860121   -0.000193802975919779   -0.000193189681860121   -0.000193802975919779      -0.743298288973717       0.656525887419797
                   11449      -0.742119815680802       0.657794884574206   -0.000195163314134715   -0.000195036073288101   -0.000195163314134715   -0.000195036073288101      -0.742119815680802       0.657794884574206
                 11449.2      -0.740933127290218       0.659068075554166   -0.000197160022313273   -0.000196276174076387   -0.000197160022313273   -0.000196276174076387      -0.740933127290218       0.659068075554166
                 11449.4      -0.739738146432317       0.660345473164002   -0.000199180096853484   -0.000197523267554958   -0.000199180096853484   -0.000197523267554958      -0.739738146432317       0.660345473164002
                 11449.6      -0.738534794815548       0.661627090114786   -0.000201223831758047   -0.000198777341047757   -0.000201223831758047   -0.000198777341047757      -0.738534794815548       0.661627090114786
                 11449.8       -0.73732299321314        0.66291293901979   -0.000203291524603342   -0.000200038379865713   -0.000203291524603342   -0.000200038379865713       -0.73732299321314        0.66291293901979
                   11450      -0.736102661449538       0.664203032389853   -0.000205383476567588   -0.000201306367238255   -0.000205383476567588   -0.000201306367238255      -0.736102661449538       0.664203032389853
                 11450.2      -0.734873718386646       0.665497382628542   -0.000207499992458294   -0.000202581284242816   -0.000207499992458294   -0.000202581284242816      -0.734873718386646       0.665497382628542
                 11450.4       -0.73363608190983       0.666796002027212   -0.000209641380739091   -0.000203863109732377   -0.000209641380739091   -0.000203863109732377       -0.73363608190983       0.666796002027212
                 11450.6       -0.73238966891363       0.668098902759949   -0.000211807953555876   -0.000205151820260986   -0.000211807953555876   -0.000205151820260986       -0.73238966891363       0.668098902759949
                 11450.8      -0.731134395287302       0.669406096878311   -0.000214000026762096   -0.000206447390007134   -0.000214000026762096   -0.000206447390007134      -0.731134395287302       0.669406096878311
                   11451      -0.729870175900057       0.670717596305962   -0.000216217919943246   -0.000207749790695008   -0.000216217919943246   -0.000207749790695008      -0.729870175900057       0.670717596305962
                 11451.2      -0.728596924586092       0.672033412833097   -0.000218461956440385   -0.000209058991513494   -0.000218461956440385   -0.000209058991513494      -0.728596924586092       0.672033412833097
                 11451.4      -0.727314554129292       0.673353558110804   -0.000220732463372802   -0.000210374959032995   -0.000220732463372802   -0.000210374959032995      -0.727314554129292       0.673353558110804
                 11451.6      -0.726022976247738       0.674678043645159   -0.000223029771659509    -0.00021169765711984   -0.000223029771659509    -0.00021169765711984      -0.726022976247738       0.674678043645159
                 11451.8      -0.724722101577912       0.676006880791209   -0.000225354216039655   -0.000213027046848343   -0.000225354216039655   -0.000213027046848343      -0.724722101577912       0.676006880791209
                   11452      -0.723411839658634       0.677340080746763   -0.000227706135091753   -0.000214363086410431   -0.000227706135091753   -0.000214363086410431      -0.723411839658634       0.677340080746763
                 11452.2      -0.722092098914724       0.678677654546002   -0.000230085871251575   -0.000215705731022733   -0.000230085871251575   -0.000215705731022733      -0.722092098914724       0.678677654546002
                 11452.4      -0.720762786640362       0.680019613052926   -0.000232493770828747   -0.000217054932831136   -0.000232493770828747   -0.000217054932831136      -0.720762786640362       0.680019613052926
                 11452.6      -0.719423808982156       0.681365966954602   -0.000234930184021844   -0.000218410640812701   -0.000234930184021844   -0.000218410640812701      -0.719423808982156       0.681365966954602
                 11452.8      -0.718075070921944       0.682716726754193     -0.0002373954649319   -0.000219772800674841     -0.0002373954649319   -0.000219772800674841      -0.718075070921944       0.682716726754193
                   11453      -0.716716476259273       0.684071902763808   -0.000239889971574283    -0.00022114135475177   -0.000239889971574283    -0.00022114135475177      -0.716716476259273       0.684071902763808
                 11453.2      -0.715347927593535       0.685431505097172   -0.000242414065888872   -0.000222516241898125   -0.000242414065888872   -0.000222516241898125      -0.715347927593535       0.685431505097172
                 11453.4      -0.713969326305858       0.686795543662016   -0.000244968113748244   -0.000223897397379637   -0.000244968113748244   -0.000223897397379637      -0.713969326305858       0.686795543662016
                 11453.6      -0.712580572540612       0.688164028152319   -0.000247552484963982   -0.000225284752760873   -0.000247552484963982   -0.000225284752760873      -0.712580572540612       0.688164028152319
                 11453.8      -0.711181565186588        0.68953696804031   -0.000250167553290882   -0.000226678235789927   -0.000250167553290882   -0.000226678235789927      -0.711181565186588        0.68953696804031
                   11454      -0.709772201857913       0.690914372568179   -0.000252813696428804   -0.000228077770279932   -0.000252813696428804   -0.000228077770279932      -0.709772201857913       0.690914372568179
                 11454.2      -0.708352378874549       0.692296250739615   -0.000255491296022287   -0.000229483275987428   -0.000255491296022287   -0.000229483275987428      -0.708352378874549       0.692296250739615
                 11454.4      -0.706921991242454       0.693682611311094   -0.000258200737657656   -0.000230894668487456   -0.000258200737657656   -0.000230894668487456      -0.706921991242454       0.693682611311094
                 11454.6      -0.705480932633408       0.695073462782891   -0.000260942410857449   -0.000232311859045279   -0.000260942410857449   -0.000232311859045279      -0.705480932633408       0.695073462782891
                 11454.8      -0.704029095364463       0.696468813389845   -0.000263716709072064   -0.000233734754484678   -0.000263716709072064   -0.000233734754484678      -0.704029095364463       0.696468813389845
                   11455      -0.702566370377014       0.697868671091856   -0.000266524029668481   -0.000235163257052748   -0.000266524029668481   -0.000235163257052748      -0.702566370377014       0.697868671091856
                 11455.2      -0.701092647215543        0.69927304356408   -0.000269364773915775   -0.000236597264281054   -0.000269364773915775   -0.000236597264281054      -0.701092647215543        0.69927304356408
                 11455.4      -0.699607814005868       0.700681938186911   -0.000272239346967524   -0.000238036668843202   -0.000272239346967524   -0.000238036668843202      -0.699607814005868       0.700681938186911
                 11455.6      -0.698111757433112        0.70209536203559   -0.000275148157840556   -0.000239481358408557   -0.000275148157840556   -0.000239481358408557      -0.698111757433112        0.70209536203559
                 11455.8      -0.696604362719196       0.703513321869567   -0.000278091619390163   -0.000240931215492171   -0.000278091619390163   -0.000240931215492171      -0.696604362719196       0.703513321869567
                   11456      -0.695085513599942       0.704935824121541   -0.000281070148281418   -0.000242386117300768   -0.000281070148281418   -0.000242386117300768      -0.695085513599942       0.704935824121541
                 11456.2      -0.693555092301782       0.706362874886153   -0.000284084164956394   -0.000243845935574684   -0.000284084164956394   -0.000243845935574684      -0.693555092301782       0.706362874886153
                 11456.4      -0.692012979517982         0.7077944799084   -0.000287134093597187   -0.000245310536425749   -0.000287134093597187   -0.000245310536425749      -0.692012979517982         0.7077944799084
                 11456.6      -0.690459054384478       0.709230644571672   -0.000290220362084351   -0.000246779780170925   -0.000290220362084351   -0.000246779780170925      -0.690459054384478       0.709230644571672
                 11456.8      -0.688893194455212       0.710671373885489   -0.000293343401950701   -0.000248253521161719   -0.000293343401950701   -0.000248253521161719      -0.688893194455212       0.710671373885489
                   11457      -0.687315275677104       0.712116672472782   -0.000296503648329914    -0.00024973160760911   -0.000296503648329914    -0.00024973160760911      -0.687315275677104       0.712116672472782
                 11457.2      -0.685725172364447       0.713566544556924   -0.000299701539900134   -0.000251213881404132   -0.000299701539900134   -0.000251213881404132      -0.685725172364447       0.713566544556924
                 11457.4      -0.684122757172889       0.715020993948309   -0.000302937518821894   -0.000252700177933823   -0.000302937518821894   -0.000252700177933823      -0.684122757172889       0.715020993948309
                 11457.6      -0.682507901072921       0.716480024030545   -0.000306212030670266   -0.000254190325892525   -0.000306212030670266   -0.000254190325892525      -0.682507901072921       0.716480024030545
                 11457.8      -0.680880473322846       0.717943637746277   -0.000309525524360954    -0.00025568414708847   -0.000309525524360954    -0.00025568414708847      -0.680880473322846       0.717943637746277
                   11458      -0.679240341441294       0.719411837582528   -0.000312878452069858   -0.000257181456245461   -0.000312878452069858   -0.000257181456245461      -0.679240341441294       0.719411837582528
                 11458.2      -0.677587371179142       0.720884625555693   -0.000316271269146055     -0.0002586820607997   -0.000316271269146055     -0.0002586820607997      -0.677587371179142       0.720884625555693
                 11458.4      -0.675921426490968       0.722362003196022   -0.000319704434017576   -0.000260185760691514   -0.000319704434017576   -0.000260185760691514      -0.675921426490968       0.722362003196022
                 11458.6        -0.6742423695059       0.723843971531717   -0.000323178408089887   -0.000261692348152038   -0.000323178408089887   -0.000261692348152038        -0.6742423695059       0.723843971531717
                 11458.8       -0.67255006049803        0.72533053107244   -0.000326693655636308   -0.000263201607484554   -0.000326693655636308   -0.000263201607484554       -0.67255006049803        0.72533053107244
                   11459      -0.670844357856088       0.726821681792506   -0.000330250643680625   -0.000264713314840696   -0.000330250643680625   -0.000264713314840696      -0.670844357856088       0.726821681792506
                 11459.2      -0.669125118052726         0.7283174231134   -0.000333849841870703   -0.000266227237991085   -0.000333849841870703   -0.000266227237991085      -0.669125118052726         0.7283174231134
                 11459.4       -0.66739219561306       0.729817753885919   -0.000337491722343399   -0.000267743136090598   -0.000337491722343399   -0.000267743136090598       -0.66739219561306       0.729817753885919
                 11459.6      -0.665645443082689       0.731322672371715   -0.000341176759579846   -0.000269260759438001   -0.000341176759579846   -0.000269260759438001      -0.665645443082689       0.731322672371715
                 11459.8      -0.663884710995103       0.732832176224278   -0.000344905430250802   -0.000270779849229899   -0.000344905430250802   -0.000270779849229899      -0.663884710995103       0.732832176224278
                   11460      -0.662109847838422       0.734346262469399   -0.000348678213051674   -0.000272300137308974   -0.000348678213051674   -0.000272300137308974      -0.662109847838422       0.734346262469399
                 11460.2      -0.660320700021509       0.735864927485031   -0.000352495588526584   -0.000273821345906364   -0.000352495588526584   -0.000273821345906364      -0.660320700021509       0.735864927485031
                 11460.4      -0.658517111839433       0.737388166980541   -0.000356358038880971   -0.000275343187378111   -0.000356358038880971   -0.000275343187378111      -0.658517111839433       0.737388166980541
                 11460.6      -0.656698925438274       0.738915975975336   -0.000360266047782184   -0.000276865363935615   -0.000360266047782184   -0.000276865363935615      -0.656698925438274       0.738915975975336
                 11460.8      -0.654865980779193       0.740448348776887   -0.000364220100147567   -0.000278387567370027   -0.000364220100147567   -0.000278387567370027      -0.654865980779193       0.740448348776887
                   11461      -0.653018115601862        0.74198527895804    -0.00036822068191927   -0.000279909478770469    -0.00036822068191927   -0.000279909478770469      -0.653018115601862        0.74198527895804
                 11461.2      -0.651155165387125       0.743526759333701   -0.000372268279825342   -0.000281430768236069   -0.000372268279825342   -0.000281430768236069      -0.651155165387125       0.743526759333701
                 11461.4      -0.649276963318966       0.745072781936768   -0.000376363381126245   -0.000282951094581679   -0.000376363381126245   -0.000282951094581679      -0.649276963318966       0.745072781936768
                 11461.6      -0.647383340245686       0.746623337993384   -0.000380506473346336   -0.000284470105037306   -0.000380506473346336   -0.000284470105037306      -0.647383340245686       0.746623337993384
                 11461.8      -0.645474124640372       0.748178417897392   -0.000384698043989303   -0.000285987434941087   -0.000384698043989303   -0.000285987434941087      -0.645474124640372       0.748178417897392
                   11462      -0.643549142560519       0.749738011184069   -0.000388938580237141   -0.000287502707425905   -0.000388938580237141   -0.000287502707425905      -0.643549142560519       0.749738011184069
                 11462.2      -0.641608217606926       0.751302106503001   -0.000393228568631506   -0.000289015533099446   -0.000393228568631506   -0.000289015533099446      -0.641608217606926       0.751302106503001
                 11462.4      -0.639651170881665       0.752870691590226   -0.000397568494737081   -0.000290525509717849   -0.000397568494737081   -0.000290525509717849      -0.639651170881665       0.752870691590226
                 11462.6      -0.637677820945354       0.754443753239409   -0.000401958842785534   -0.000292032221852725   -0.000401958842785534   -0.000292032221852725      -0.637677820945354       0.754443753239409
                 11462.8      -0.635687983773423       0.756021277272262    -0.00040640009529979   -0.000293535240551732    -0.00040640009529979   -0.000293535240551732      -0.635687983773423       0.756021277272262
                   11463      -0.633681472711659       0.757603248507937   -0.000410892732697038   -0.000295034122992513   -0.000410892732697038   -0.000295034122992513      -0.633681472711659       0.757603248507937
                 11463.2      -0.631658098430698       0.759189650731605   -0.000415437232870156   -0.000296528412130192   -0.000415437232870156   -0.000296528412130192      -0.631658098430698       0.759189650731605
                 11463.4       -0.62961766887975       0.760780466661952   -0.000420034070745868   -0.000298017636338267   -0.000420034070745868   -0.000298017636338267       -0.62961766887975       0.760780466661952
                 11463.6      -0.627559989239311       0.762375677917738   -0.000424683717819054   -0.000299501309043063   -0.000424683717819054   -0.000299501309043063      -0.627559989239311       0.762375677917738
                 11463.8      -0.625484861872842       0.763975264983382    -0.00042938664166212   -0.000300978928351818    -0.00042938664166212   -0.000300978928351818      -0.625484861872842       0.763975264983382
                   11464      -0.623392086277691       0.765579207173306   -0.000434143305407525   -0.000302449976674237   -0.000434143305407525   -0.000302449976674237      -0.623392086277691       0.765579207173306
                 11464.2      -0.621281459034788       0.767187482595355   -0.000438954167203332   -0.000303913920337915   -0.000438954167203332   -0.000303913920337915      -0.621281459034788       0.767187482595355
                 11464.4      -0.619152773757415       0.768800068113002    -0.00044381967963974   -0.000305370209197521    -0.00044381967963974   -0.000305370209197521      -0.619152773757415       0.768800068113002
                 11464.6      -0.617005821038924       0.770416939306376    -0.00044874028914547   -0.000306818276237897    -0.00044874028914547   -0.000306818276237897      -0.617005821038924       0.770416939306376
                 11464.8      -0.614840388399409       0.772038070432053   -0.000453716435352604   -0.000308257537171232   -0.000453716435352604   -0.000308257537171232      -0.614840388399409       0.772038070432053
                   11465      -0.612656260231182       0.773663434381675   -0.000458748550428674   -0.000309687390028544   -0.000458748550428674   -0.000309687390028544      -0.612656260231182       0.773663434381675
                 11465.2      -0.610453217743273       0.775293002639142   -0.000463837058373916   -0.000311107214745496   -0.000463837058373916   -0.000311107214745496      -0.610453217743273       0.775293002639142
                 11465.4      -0.608231038904623       0.776926745236596    -0.00046898237428283   -0.000312516372742967    -0.00046898237428283   -0.000312516372742967      -0.608231038904623       0.776926745236596
                 11465.6       -0.60598949838629       0.778564630708864   -0.000474184903567581   -0.000313914206502421   -0.000474184903567581   -0.000313914206502421       -0.60598949838629       0.778564630708864
                 11465.8      -0.603728367502188       0.780206626046663   -0.000479445041142544   -0.000315300039136608   -0.000479445041142544   -0.000315300039136608      -0.603728367502188       0.780206626046663
                   11466      -0.601447414148946       0.781852696648066   -0.000484763170566791   -0.000316673173955566   -0.000484763170566791   -0.000316673173955566      -0.601447414148946       0.781852696648066
                 11466.2      -0.599146402744155       0.783502806268681   -0.000490139663144234   -0.000318032894028683   -0.000490139663144234   -0.000318032894028683      -0.599146402744155       0.783502806268681
                 11466.4       -0.59682509416359       0.785156916970053   -0.000495574876978049   -0.000319378461742854   -0.000495574876978049   -0.000319378461742854       -0.59682509416359       0.785156916970053
                 11466.6      -0.594483245676984       0.786814989066511   -0.000501069155978217   -0.000320709118357397   -0.000501069155978217   -0.000320709118357397      -0.594483245676984       0.786814989066511
                 11466.8       -0.59212061088249       0.788476981070292   -0.000506622828819677   -0.000322024083556121   -0.000506622828819677   -0.000322024083556121       -0.59212061088249       0.788476981070292
                   11467      -0.589736939639754       0.790142849634894   -0.000512236207848894   -0.000323322554997099   -0.000512236207848894   -0.000323322554997099      -0.589736939639754       0.790142849634894