! This file was generated by CST Filter Designer 3D
! _________________________________________________
! Date:                         05.11.2025 19:48:09

# MHZ S RI R 50
!              Frequency                 Re(S11)                 Im(S11)                 Re(S21)                 Im(S21)                 Re(S12)                 Im(S12)                 Re(S22)                 Im(S22)
                   11440      -0.787792062987797       0.604975188397663   -0.000129958029998641    -0.00015352625541336   -0.000129958029998641    -0.00015352625541336      -0.787792062987797       0.604975188397663
                 11440.2      -0.786910313137328       0.606072333562998   -0.000131219855925224   -0.000154534921798679   -0.000131219855925224   -0.000154534921798679      -0.786910313137328       0.606072333562998
                 11440.4      -0.786023013468837       0.607173059347475   -0.000132496030906636   -0.000155550736474958   -0.000132496030906636   -0.000155550736474958      -0.786023013468837       0.607173059347475
                 11440.6       -0.78513011687545       0.608277379582746   -0.000133786738555614   -0.000156573740404097   -0.000133786738555614   -0.000156573740404097       -0.78513011687545       0.608277379582746
                 11440.8      -0.784231575745042       0.609385308117741    -0.00013509216501645   -0.000157603974355265    -0.00013509216501645   -0.000157603974355265      -0.784231575745042       0.609385308117741
                   11441      -0.783327341953643       0.610496858817475   -0.000136412499000197   -0.000158641478887456   -0.000136412499000197   -0.000158641478887456      -0.783327341953643       0.610496858817475
                 11441.2      -0.782417366858775       0.611612045561775   -0.000137747931820292   -0.000159686294331427   -0.000137747931820292   -0.000159686294331427      -0.782417366858775       0.611612045561775
                 11441.4      -0.781501601292677       0.612730882243982    -0.00013909865742857   -0.000160738460770993    -0.00013909865742857   -0.000160738460770993      -0.781501601292677       0.612730882243982
                 11441.6      -0.780579995555453        0.61385338276957   -0.000140464872451686   -0.000161798018023679   -0.000140464872451686   -0.000161798018023679      -0.780579995555453        0.61385338276957
                 11441.8      -0.779652499408043       0.614979561054823   -0.000141846776228044   -0.000162865005620782   -0.000141846776228044   -0.000162865005620782      -0.779652499408043       0.614979561054823
                   11442        -0.7787190620652       0.616109431025308   -0.000143244570844969   -0.000163939462786617   -0.000143244570844969   -0.000163939462786617        -0.7787190620652       0.616109431025308
                 11442.2      -0.777779632188234       0.617243006614481   -0.000144658461176508   -0.000165021428417222   -0.000144658461176508   -0.000165021428417222      -0.777779632188234       0.617243006614481
                 11442.4      -0.776834157877746       0.618380301762094   -0.000146088654921451   -0.000166110941058203   -0.000146088654921451   -0.000166110941058203      -0.776834157877746       0.618380301762094
                 11442.6       -0.77588258666618       0.619521330412659   -0.000147535362641916   -0.000167208038881937   -0.000147535362641916   -0.000167208038881937       -0.77588258666618       0.619521330412659
                 11442.8      -0.774924865510296       0.620666106513808   -0.000148998797802253   -0.000168312759663954   -0.000148998797802253   -0.000168312759663954      -0.774924865510296       0.620666106513808
                   11443      -0.773960940783507       0.621814644014625   -0.000150479176808411   -0.000169425140758559   -0.000150479176808411   -0.000169425140758559      -0.773960940783507       0.621814644014625
                 11443.2      -0.772990758268106       0.622966956863921    -0.00015197671904769   -0.000170545219073631    -0.00015197671904769   -0.000170545219073631      -0.772990758268106       0.622966956863921
                 11443.4      -0.772014263147378       0.624123059008441   -0.000153491646928889   -0.000171673031044581   -0.000153491646928889   -0.000171673031044581      -0.772014263147378       0.624123059008441
                 11443.6      -0.771031399997571       0.625282964391036   -0.000155024185922876   -0.000172808612607466   -0.000155024185922876   -0.000172808612607466      -0.771031399997571       0.625282964391036
                 11443.8      -0.770042112779734       0.626446686948793   -0.000156574564603582   -0.000173951999171232   -0.000156574564603582   -0.000173951999171232      -0.770042112779734       0.626446686948793
                   11444      -0.769046344831469       0.627614240611055    -0.00015814301468931    -0.00017510322558899    -0.00015814301468931    -0.00017510322558899      -0.769046344831469       0.627614240611055
                 11444.2      -0.768044038858501       0.628785639297434   -0.000159729771084517   -0.000176262326128426   -0.000159729771084517   -0.000176262326128426      -0.768044038858501       0.628785639297434
                 11444.4      -0.767035136926146       0.629960896915736   -0.000161335071921923   -0.000177429334441182   -0.000161335071921923   -0.000177429334441182      -0.767035136926146       0.629960896915736
                 11444.6      -0.766019580450632       0.631140027359835    -0.00016295915860504   -0.000178604283531294    -0.00016295915860504   -0.000178604283531294      -0.766019580450632       0.631140027359835
                 11444.8      -0.764997310190289       0.632323044507472   -0.000164602275851028   -0.000179787205722568   -0.000164602275851028   -0.000179787205722568      -0.764997310190289       0.632323044507472
                   11445      -0.763968266236588       0.633509962217994   -0.000166264671733953   -0.000180978132624925   -0.000166264671733953   -0.000180978132624925      -0.763968266236588       0.633509962217994
                 11445.2      -0.762932388005031       0.634700794330047   -0.000167946597728401   -0.000182177095099669   -0.000167946597728401   -0.000182177095099669      -0.762932388005031       0.634700794330047
                 11445.4      -0.761889614225937       0.635895554659136   -0.000169648308753378   -0.000183384123223593   -0.000169648308753378   -0.000183384123223593      -0.761889614225937       0.635895554659136
                 11445.6      -0.760839882935027       0.637094256995185   -0.000171370063216625   -0.000184599246251991   -0.000171370063216625   -0.000184599246251991      -0.760839882935027       0.637094256995185
                 11445.8      -0.759783131463861       0.638296915100005   -0.000173112123059251   -0.000185822492580481   -0.000173112123059251   -0.000185822492580481      -0.759783131463861       0.638296915100005
                   11446       -0.75871929643017        0.63950354270465   -0.000174874753800617   -0.000187053889705566   -0.000174874753800617   -0.000187053889705566       -0.75871929643017        0.63950354270465
                 11446.2      -0.757648313727995       0.640714153506718   -0.000176658224583563   -0.000188293464183974   -0.000176658224583563   -0.000188293464183974      -0.757648313727995       0.640714153506718
                 11446.4      -0.756570118517641       0.641928761167611   -0.000178462808219977   -0.000189541241590736   -0.000178462808219977   -0.000189541241590736      -0.756570118517641       0.641928761167611
                 11446.6       -0.75548464521554       0.643147379309629   -0.000180288781236525   -0.000190797246475864   -0.000180288781236525   -0.000190797246475864       -0.75548464521554       0.643147379309629
                 11446.8      -0.754391827483868       0.644370021513068   -0.000182136423920757   -0.000192061502319748   -0.000182136423920757   -0.000192061502319748      -0.754391827483868       0.644370021513068
                   11447      -0.753291598220057       0.645596701313163    -0.00018400602036737   -0.000193334031487075    -0.00018400602036737   -0.000193334031487075      -0.753291598220057       0.645596701313163
                 11447.2      -0.752183889546075       0.646827432197004   -0.000185897858524782   -0.000194614855179373   -0.000185897858524782   -0.000194614855179373      -0.752183889546075       0.646827432197004
                 11447.4      -0.751068632797593       0.648062227600297    -0.00018781223024182   -0.000195903993385992    -0.00018781223024182   -0.000195903993385992      -0.751068632797593       0.648062227600297
                 11447.6      -0.749945758512946       0.649301100904055   -0.000189749431314634   -0.000197201464833592   -0.000189749431314634   -0.000197201464833592      -0.749945758512946       0.649301100904055
                 11447.8      -0.748815196421859       0.650544065431257   -0.000191709761533871   -0.000198507286934107   -0.000191709761533871   -0.000198507286934107      -0.748815196421859       0.650544065431257
                   11448      -0.747676875434104       0.651791134443271   -0.000193693524731787   -0.000199821475730959   -0.000193693524731787   -0.000199821475730959      -0.747676875434104       0.651791134443271
                 11448.2      -0.746530723627848       0.653042321136313    -0.00019570102882969   -0.000201144045843744    -0.00019570102882969   -0.000201144045843744      -0.746530723627848       0.653042321136313
                 11448.4      -0.745376668237896       0.654297638637709   -0.000197732585885324   -0.000202475010411103   -0.000197732585885324   -0.000202475010411103      -0.745376668237896       0.654297638637709
                 11448.6       -0.74421463564366       0.655557100002116   -0.000199788512140444   -0.000203814381031903   -0.000199788512140444   -0.000203814381031903       -0.74421463564366       0.655557100002116
                 11448.8      -0.743044551357017       0.656820718207559   -0.000201869128068279   -0.000205162167704522   -0.000201869128068279   -0.000205162167704522      -0.743044551357017       0.656820718207559
                   11449      -0.741866340009877       0.658088506151428   -0.000203974758421153   -0.000206518378764348   -0.000203974758421153   -0.000206518378764348      -0.741866340009877       0.658088506151428
                 11449.2      -0.740679925341611       0.659360476646297   -0.000206105732277947   -0.000207883020819289   -0.000206105732277947   -0.000207883020819289      -0.740679925341611       0.659360476646297
                 11449.4        -0.7394852301862       0.660636642415682   -0.000208262383091613   -0.000209256098683368   -0.000208262383091613   -0.000209256098683368        -0.7394852301862       0.660636642415682
                 11449.6      -0.738282176459235       0.661917016089619   -0.000210445048736494   -0.000210637615308238   -0.000210445048736494   -0.000210637615308238      -0.738282176459235       0.661917016089619
                 11449.8       -0.73707068514466       0.663201610200139   -0.000212654071555526   -0.000212027571712614   -0.000212654071555526   -0.000212027571712614       -0.73707068514466       0.663201610200139
                   11450      -0.735850676281279       0.664490437176638   -0.000214889798407328   -0.000213425966909602   -0.000214889798407328   -0.000213425966909602      -0.735850676281279       0.664490437176638
                 11450.2      -0.734622068949065       0.665783509341063   -0.000217152580712949   -0.000214832797831747   -0.000217152580712949   -0.000214832797831747      -0.734622068949065       0.665783509341063
                 11450.4      -0.733384781255235       0.667080838902982   -0.000219442774502409   -0.000216248059253846   -0.000219442774502409   -0.000216248059253846      -0.733384781255235       0.667080838902982
                 11450.6      -0.732138730320034       0.668382437954543   -0.000221760740460951   -0.000217671743713448   -0.000221760740460951   -0.000217671743713448      -0.732138730320034       0.668382437954543
                 11450.8      -0.730883832262348       0.669688318465232   -0.000224106843974832   -0.000219103841428898   -0.000224106843974832   -0.000219103841428898      -0.730883832262348       0.669688318465232
                   11451      -0.729620002185017       0.670998492276529   -0.000226481455176753   -0.000220544340214952   -0.000226481455176753   -0.000220544340214952      -0.729620002185017       0.670998492276529
                 11451.2      -0.728347154159948       0.672312971096347   -0.000228884948990713     -0.0002219932253958   -0.000228884948990713     -0.0002219932253958      -0.728347154159948       0.672312971096347
                 11451.4      -0.727065201212889       0.673631766493409   -0.000231317705176464   -0.000223450479715566   -0.000231317705176464   -0.000223450479715566      -0.727065201212889       0.673631766493409
                 11451.6      -0.725774055308013       0.674954889891377     -0.0002337801083732    -0.00022491608324604     -0.0002337801083732    -0.00022491608324604      -0.725774055308013       0.674954889891377
                 11451.8      -0.724473627332218       0.676282352562836   -0.000236272548142623   -0.000226390013291681   -0.000236272548142623   -0.000226390013291681      -0.724473627332218       0.676282352562836
                   11452       -0.72316382707913       0.677614165623128   -0.000238795419011259   -0.000227872244291792   -0.000238795419011259   -0.000227872244291792       -0.72316382707913       0.677614165623128
                 11452.2      -0.721844563232863       0.678950340023967   -0.000241349120511897   -0.000229362747719754   -0.000241349120511897   -0.000229362747719754      -0.721844563232863       0.678950340023967
                 11452.4      -0.720515743351456       0.680290886546921   -0.000243934057224186   -0.000230861491979305   -0.000243934057224186   -0.000230861491979305      -0.720515743351456       0.680290886546921
                 11452.6      -0.719177273850035       0.681635815796676   -0.000246550638814194   -0.000232368442297722   -0.000246550638814194   -0.000232368442297722      -0.719177273850035       0.681635815796676
                 11452.8      -0.717829059983705       0.682985138194099   -0.000249199280072843   -0.000233883560615809   -0.000249199280072843   -0.000233883560615809      -0.717829059983705       0.682985138194099
                   11453      -0.716471005830114        0.68433886396911   -0.000251880400953197   -0.000235406805474672   -0.000251880400953197   -0.000235406805474672      -0.716471005830114        0.68433886396911
                 11453.2      -0.715103014271694       0.685697003153378   -0.000254594426606518   -0.000236938131899167   -0.000254594426606518   -0.000236938131899167      -0.715103014271694       0.685697003153378
                 11453.4      -0.713724986977638       0.687059565572747    -0.00025734178741682   -0.000238477491277861    -0.00025734178741682   -0.000238477491277861      -0.713724986977638       0.687059565572747
                 11453.6      -0.712336824385509       0.688426560839499   -0.000260122919034034   -0.000240024831239531   -0.000260122919034034   -0.000240024831239531      -0.712336824385509       0.688426560839499
                 11453.8      -0.710938425682522       0.689797998344394   -0.000262938262405565   -0.000241580095526037   -0.000262938262405565   -0.000241580095526037      -0.710938425682522       0.689797998344394
                   11454      -0.709529688786552       0.691173887248412   -0.000265788263805982   -0.000243143223861415   -0.000265788263805982   -0.000243143223861415      -0.709529688786552       0.691173887248412
                 11454.2       -0.70811051032675       0.692554236474325   -0.000268673374864981   -0.000244714151817218   -0.000268673374864981   -0.000244714151817218       -0.70811051032675       0.692554236474325
                 11454.4        -0.7066807856238       0.693939054698019   -0.000271594052593338   -0.000246292810673937   -0.000271594052593338   -0.000246292810673937        -0.7066807856238       0.693939054698019
                 11454.6      -0.705240408669859       0.695328350339544   -0.000274550759406694   -0.000247879127278375   -0.000274550759406694   -0.000247879127278375      -0.705240408669859       0.695328350339544
                 11454.8      -0.703789272108121       0.696722131553915   -0.000277543963147061     -0.0002494730238969   -0.000277543963147061     -0.0002494730238969      -0.703789272108121       0.696722131553915
                   11455      -0.702327267211998       0.698120406221654    -0.00028057413710192   -0.000251074418064473    -0.00028057413710192   -0.000251074418064473      -0.702327267211998       0.698120406221654
                 11455.2       -0.70085428386398       0.699523181939021   -0.000283641760020613   -0.000252683222429268   -0.000283641760020613   -0.000252683222429268       -0.70085428386398       0.699523181939021
                 11455.4      -0.699370210534006       0.700930466008042   -0.000286747316128157    -0.00025429934459294   -0.000286747316128157    -0.00025429934459294      -0.699370210534006       0.700930466008042
                 11455.6      -0.697874934257555       0.702342265426159   -0.000289891295135897   -0.000255922686946199   -0.000289891295135897   -0.000255922686946199      -0.697874934257555       0.702342265426159
                 11455.8      -0.696368340613259       0.703758586875646    -0.00029307419224914   -0.000257553146499754    -0.00029307419224914   -0.000257553146499754      -0.696368340613259       0.703758586875646
                   11456      -0.694850313700141       0.705179436712686   -0.000296296508171408   -0.000259190614710417   -0.000296296508171408   -0.000259190614710417      -0.694850313700141       0.705179436712686
                 11456.2      -0.693320736114445       0.706604820956122   -0.000299558749105093   -0.000260834977302246   -0.000299558749105093   -0.000260834977302246      -0.693320736114445       0.706604820956122
                 11456.4      -0.691779488925998       0.708034745275926   -0.000302861426748432   -0.000262486114082664   -0.000302861426748432   -0.000262486114082664      -0.691779488925998       0.708034745275926
                 11456.6      -0.690226451654185        0.70946921498128   -0.000306205058288377   -0.000264143898753329   -0.000306205058288377   -0.000264143898753329      -0.690226451654185        0.70946921498128
                 11456.8      -0.688661502243411       0.710908235008377   -0.000309590166389359   -0.000265808198715755   -0.000309590166389359   -0.000265808198715755      -0.688661502243411       0.710908235008377
                   11457      -0.687084517038235       0.712351809907759   -0.000313017279177298   -0.000267478874871343   -0.000313017279177298   -0.000267478874871343      -0.687084517038235       0.712351809907759
                 11457.2      -0.685495370757888       0.713799943831405   -0.000316486930219138   -0.000269155781415962   -0.000316486930219138   -0.000269155781415962      -0.685495370757888       0.713799943831405
                 11457.4      -0.683893936470421       0.715252640519377   -0.000319999658497149   -0.000270838765628712   -0.000319999658497149   -0.000270838765628712      -0.683893936470421       0.715252640519377
                 11457.6      -0.682280085566337       0.716709903286078   -0.000323556008377927   -0.000272527667654834   -0.000323556008377927   -0.000272527667654834      -0.682280085566337       0.716709903286078
                 11457.8      -0.680653687731715       0.718171735006139   -0.000327156529575794   -0.000274222320282632   -0.000327156529575794   -0.000274222320282632      -0.680653687731715       0.718171735006139
                   11458      -0.679014610920887       0.719638138099839   -0.000330801777110088   -0.000275922548714177   -0.000330801777110088   -0.000275922548714177      -0.679014610920887       0.719638138099839
                 11458.2      -0.677362721328515        0.72110911451816   -0.000334492311256317   -0.000277628170329795   -0.000334492311256317   -0.000277628170329795      -0.677362721328515        0.72110911451816
                 11458.4      -0.675697883361216       0.722584665727357     -0.0003382286974905   -0.000279338994446035     -0.0003382286974905   -0.000279338994446035      -0.675697883361216       0.722584665727357
                 11458.6      -0.674019959608578       0.724064792693131   -0.000342011506426611   -0.000281054822067116   -0.000342011506426611   -0.000281054822067116      -0.674019959608578       0.724064792693131
                 11458.8      -0.672328810813752       0.725549495864213   -0.000345841313746297   -0.000282775445629488   -0.000345841313746297   -0.000282775445629488      -0.672328810813752       0.725549495864213
                   11459      -0.670624295843295       0.727038775155652   -0.000349718700121189   -0.000284500648739696   -0.000349718700121189   -0.000284500648739696      -0.670624295843295       0.727038775155652
                 11459.2      -0.668906271656642       0.728532629931411   -0.000353644251126462   -0.000286230205904977   -0.000353644251126462   -0.000286230205904977      -0.668906271656642       0.728532629931411
                 11459.4      -0.667174593274836       0.730031058986608   -0.000357618557146044    -0.00028796388225682   -0.000357618557146044    -0.00028796388225682      -0.667174593274836       0.730031058986608
                 11459.6      -0.665429113748728        0.73153406052915   -0.000361642213268419   -0.000289701433267073   -0.000361642213268419   -0.000289701433267073      -0.665429113748728        0.73153406052915
                 11459.8      -0.663669684126589       0.733041632160816   -0.000365715819172731   -0.000291442604456532   -0.000365715819172731   -0.000291442604456532      -0.663669684126589       0.733041632160816
                   11460      -0.661896153421043       0.734553770857824   -0.000369839979004747   -0.000293187131095891   -0.000369839979004747   -0.000293187131095891      -0.661896153421043       0.734553770857824
                 11460.2      -0.660108368575382       0.736070472950796   -0.000374015301242012   -0.000294934737898838   -0.000374015301242012   -0.000294934737898838      -0.660108368575382       0.736070472950796
                 11460.4      -0.658306174429244       0.737591734104122   -0.000378242398547637   -0.000296685138707159   -0.000378242398547637   -0.000296685138707159      -0.658306174429244       0.737591734104122
                 11460.6      -0.656489413683621       0.739117549294702   -0.000382521887612138   -0.000298438036167683   -0.000382521887612138   -0.000298438036167683      -0.656489413683621       0.739117549294702
                 11460.8      -0.654657926865159       0.740647912790085   -0.000386854388982765   -0.000300193121400961   -0.000386854388982765   -0.000300193121400961      -0.654657926865159       0.740647912790085
                   11461      -0.652811552289803        0.74218281812591   -0.000391240526879502   -0.000301950073661436   -0.000391240526879502   -0.000301950073661436      -0.652811552289803        0.74218281812591
                 11461.2      -0.650950126025683       0.743722258082715   -0.000395680928997237   -0.000303708559989056   -0.000395680928997237   -0.000303708559989056      -0.650950126025683       0.743722258082715
                 11461.4      -0.649073481855327       0.745266224662001    -0.00040017622629317   -0.000305468234852064    -0.00040017622629317   -0.000305468234852064      -0.649073481855327       0.745266224662001
                 11461.6       -0.64718145123707       0.746814709061628   -0.000404727052758937   -0.000307228739780942   -0.000404727052758937   -0.000307228739780942       -0.64718145123707       0.746814709061628
                 11461.8      -0.645273863265769       0.748367701650409   -0.000409334045176352   -0.000308989702993218   -0.000409334045176352   -0.000308989702993218      -0.645273863265769       0.748367701650409
                   11462      -0.643350544632672       0.749925191941998   -0.000413997842856285   -0.000310750739009152   -0.000413997842856285   -0.000310750739009152      -0.643350544632672       0.749925191941998
                 11462.2      -0.641411319584579       0.751487168567917   -0.000418719087359402   -0.000312511448257995   -0.000418719087359402   -0.000312511448257995      -0.641411319584579       0.751487168567917
                 11462.4      -0.639456009882065       0.753053619249856   -0.000423498422198344   -0.000314271416674881   -0.000423498422198344   -0.000314271416674881      -0.639456009882065       0.753053619249856
                 11462.6      -0.637484434757027       0.754624530771021   -0.000428336492519757   -0.000316030215287992   -0.000428336492519757   -0.000316030215287992      -0.637484434757027       0.754624530771021
                 11462.8      -0.635496410869224       0.756199888946723   -0.000433233944765859   -0.000317787399796129   -0.000433233944765859   -0.000317787399796129      -0.635496410869224       0.756199888946723
                   11463      -0.633491752262101       0.757779678593954   -0.000438191426313785   -0.000319542510136315   -0.000438191426313785   -0.000319542510136315      -0.633491752262101       0.757779678593954
                 11463.2      -0.631470270317573       0.759363883500151   -0.000443209585092304   -0.000321295070041584   -0.000443209585092304   -0.000321295070041584      -0.631470270317573       0.759363883500151
                 11463.4      -0.629431773710044       0.760952486390882   -0.000448289069174056   -0.000323044586588605   -0.000448289069174056   -0.000323044586588605      -0.629431773710044       0.760952486390882
                 11463.6      -0.627376068359423        0.76254546889661   -0.000453430526342598   -0.000324790549735247   -0.000453430526342598   -0.000324790549735247      -0.627376068359423        0.76254546889661
                 11463.8      -0.625302957383107       0.764142811518491   -0.000458634603633029   -0.000326532431848003   -0.000458634603633029   -0.000326532431848003      -0.625302957383107       0.764142811518491
                   11464      -0.623212241047228       0.765744493592923   -0.000463901946844055   -0.000328269687218957   -0.000463901946844055   -0.000328269687218957      -0.623212241047228       0.765744493592923
                 11464.2      -0.621103716716668       0.767350493255203   -0.000469233200021265   -0.000330001751572641   -0.000469233200021265   -0.000330001751572641      -0.621103716716668       0.767350493255203
                 11464.4      -0.618977178804159       0.768960787401958   -0.000474629004909322    -0.00033172804156245   -0.000474629004909322    -0.00033172804156245      -0.618977178804159       0.768960787401958
                 11464.6      -0.616832418718351       0.770575351652418   -0.000480090000371758   -0.000333447954256716   -0.000480090000371758   -0.000333447954256716      -0.616832418718351       0.770575351652418
                 11464.8      -0.614669224810821       0.772194160308459   -0.000485616821776736   -0.000335160866614393   -0.000485616821776736   -0.000335160866614393      -0.614669224810821       0.772194160308459
                   11465      -0.612487382321916       0.773817186313485   -0.000491210100347379   -0.000336866134950512   -0.000491210100347379   -0.000336866134950512      -0.612487382321916       0.773817186313485
                 11465.2      -0.610286673325613       0.775444401209891   -0.000496870462474258   -0.000338563094391223   -0.000496870462474258   -0.000338563094391223      -0.610286673325613       0.775444401209891
                 11465.4       -0.60806687667309       0.777075775095324   -0.000502598528989007   -0.000340251058318771   -0.000502598528989007   -0.000340251058318771       -0.60806687667309       0.777075775095324
                 11465.6      -0.605827767935314       0.778711276577428   -0.000508394914396189   -0.000341929317806225   -0.000508394914396189   -0.000341929317806225      -0.605827767935314       0.778711276577428
                 11465.8      -0.603569119344176       0.780350872727349   -0.000514260226062574   -0.000343597141042431   -0.000514260226062574   -0.000343597141042431      -0.603569119344176       0.780350872727349
                   11466      -0.601290699732749       0.781994529031513   -0.000520195063360092   -0.000345253772746916   -0.000520195063360092   -0.000345253772746916      -0.601290699732749       0.781994529031513
                 11466.2      -0.598992274473953       0.783642209342142   -0.000526200016762046   -0.000346898433575437   -0.000526200016762046   -0.000346898433575437      -0.598992274473953       0.783642209342142
                 11466.4      -0.596673605418193        0.78529387582599   -0.000532275666888658   -0.000348530319515991   -0.000532275666888658   -0.000348530319515991      -0.596673605418193        0.78529387582599
                 11466.6      -0.594334450829576       0.786949488911549   -0.000538422583500505   -0.000350148601275841   -0.000538422583500505   -0.000350148601275841      -0.594334450829576       0.786949488911549
                 11466.8      -0.591974565320806       0.788609007234537    -0.00054464132443685   -0.000351752423659775    -0.00054464132443685   -0.000351752423659775      -0.591974565320806       0.788609007234537
                   11467      -0.589593699786724        0.79027238758164   -0.000550932434496268   -0.000353340904940001   -0.000550932434496268   -0.000353340904940001      -0.589593699786724        0.79027238758164