! This file was generated by CST Filter Designer 3D
! _________________________________________________
! Date:                         05.11.2025 19:48:46

# MHZ S RI R 50
!              Frequency                 Re(S11)                 Im(S11)                 Re(S21)                 Im(S21)                 Re(S12)                 Im(S12)                 Re(S22)                 Im(S22)
                   11440      -0.788171270811293       0.604525226447489   -0.000118536892198188   -0.000141181483030904   -0.000118536892198188   -0.000141181483030904      -0.788171270811293       0.604525226447489
                 11440.2      -0.787293775411959       0.605618576947664   -0.000119647380341874   -0.000142070091381593   -0.000119647380341874   -0.000142070091381593      -0.787293775411959       0.605618576947664
                 11440.4      -0.786410775251906       0.606715485806033   -0.000120769910069067      -0.000142964549985   -0.000120769910069067      -0.000142964549985      -0.786410775251906       0.606715485806033
                 11440.6      -0.785522223773459       0.607815966737591   -0.000121904625209916   -0.000143864885245068   -0.000121904625209916   -0.000143864885245068      -0.785522223773459       0.607815966737591
                 11440.8      -0.784628073921486       0.608920033474714   -0.000123051671362501   -0.000144771123229055   -0.000123051671362501   -0.000144771123229055      -0.784628073921486       0.608920033474714
                   11441      -0.783728278136943       0.610027699765983   -0.000124211195911959   -0.000145683289649776   -0.000124211195911959   -0.000145683289649776      -0.783728278136943       0.610027699765983
                 11441.2      -0.782822788350325       0.611138979374953   -0.000125383348049636   -0.000146601409847288   -0.000125383348049636   -0.000146601409847288      -0.782822788350325       0.611138979374953
                 11441.4      -0.781911555975037       0.612253886078864    -0.00012656827879227   -0.000147525508769994    -0.00012656827879227   -0.000147525508769994      -0.781911555975037       0.612253886078864
                 11441.6       -0.78099453190067       0.613372433667311   -0.000127766141001191   -0.000148455610955164   -0.000127766141001191   -0.000148455610955164       -0.78099453190067       0.613372433667311
                 11441.8      -0.780071666486111       0.614494635940938   -0.000128977089401626   -0.000149391740508924   -0.000128977089401626   -0.000149391740508924      -0.780071666486111       0.614494635940938
                   11442      -0.779142909552662       0.615620506709948    -0.00013020128060186   -0.000150333921085509    -0.00013020128060186   -0.000150333921085509      -0.779142909552662       0.615620506709948
                 11442.2      -0.778208210376922       0.616750059792745   -0.000131438873112587    -0.00015128217586604   -0.000131438873112587    -0.00015128217586604      -0.778208210376922       0.616750059792745
                 11442.4       -0.77726751768367       0.617883309014369   -0.000132690027366085   -0.000152236527536523   -0.000132690027366085   -0.000152236527536523       -0.77726751768367       0.617883309014369
                 11442.6      -0.776320779638565       0.619020268205002   -0.000133954905735487   -0.000153196998265275   -0.000133954905735487   -0.000153196998265275      -0.776320779638565       0.619020268205002
                 11442.8      -0.775367943840767        0.62016095119836   -0.000135233672553953   -0.000154163609679622   -0.000135233672553953   -0.000154163609679622      -0.775367943840767        0.62016095119836
                   11443      -0.774408957315431       0.621305371830069   -0.000136526494133832   -0.000155136382841926   -0.000136526494133832   -0.000155136382841926      -0.774408957315431       0.621305371830069
                 11443.2      -0.773443766506088       0.622453543935972   -0.000137833538785744   -0.000156115338224872   -0.000137833538785744   -0.000156115338224872      -0.773443766506088       0.622453543935972
                 11443.4      -0.772472317266916       0.623605481350382   -0.000139154976837582    -0.00015710049568602   -0.000139154976837582    -0.00015710049568602      -0.772472317266916       0.623605481350382
                 11443.6       -0.77149455485488       0.624761197904295    -0.00014049098065344   -0.000158091874441611    -0.00014049098065344   -0.000158091874441611       -0.77149455485488       0.624761197904295
                 11443.8      -0.770510423921727       0.625920707423565   -0.000141841724652457   -0.000159089493039604   -0.000141841724652457   -0.000159089493039604      -0.770510423921727       0.625920707423565
                   11444       -0.76951986850591       0.627084023726964   -0.000143207385327471   -0.000160093369331869   -0.000143207385327471   -0.000160093369331869       -0.76951986850591       0.627084023726964
                 11444.2      -0.768522832024333        0.62825116062425   -0.000144588141263605   -0.000161103520445614   -0.000144588141263605   -0.000161103520445614      -0.768522832024333        0.62825116062425
                 11444.4      -0.767519257263996       0.629422131914131   -0.000145984173156646   -0.000162119962753927   -0.000145984173156646   -0.000162119962753927      -0.767519257263996       0.629422131914131
                 11444.6      -0.766509086373482       0.630596951382198   -0.000147395663831276   -0.000163142711845481   -0.000147395663831276   -0.000163142711845481      -0.766509086373482       0.630596951382198
                 11444.8      -0.765492260854348       0.631775632798766   -0.000148822798259078   -0.000164171782493325   -0.000148822798259078   -0.000164171782493325      -0.765492260854348       0.631775632798766
                   11445      -0.764468721552334       0.632958189916673    -0.00015026576357634   -0.000165207188622783    -0.00015026576357634   -0.000165207188622783      -0.764468721552334       0.632958189916673
                 11445.2      -0.763438408648455       0.634144636469026   -0.000151724749101632   -0.000166248943278417   -0.000151724749101632   -0.000166248943278417      -0.763438408648455       0.634144636469026
                 11445.4      -0.762401261649969       0.635334986166819   -0.000153199946353043   -0.000167297058589986   -0.000153199946353043   -0.000167297058589986      -0.762401261649969       0.635334986166819
                 11445.6      -0.761357219381164       0.636529252696549   -0.000154691549065216   -0.000168351545737472   -0.000154691549065216   -0.000168351545737472      -0.761357219381164       0.636529252696549
                 11445.8      -0.760306219974001       0.637727449717747    -0.00015619975320604   -0.000169412414915083    -0.00015619975320604   -0.000169412414915083      -0.760306219974001       0.637727449717747
                   11446       -0.75924820085864       0.638929590860394   -0.000157724756992949   -0.000170479675294171   -0.000157724756992949   -0.000170479675294171       -0.75924820085864       0.638929590860394
                 11446.2      -0.758183098753798       0.640135689722293   -0.000159266760908875   -0.000171553334985108   -0.000159266760908875   -0.000171553334985108      -0.758183098753798       0.640135689722293
                 11446.4      -0.757110849656907       0.641345759866384   -0.000160825967717849   -0.000172633400998102   -0.000160825967717849   -0.000172633400998102      -0.757110849656907       0.641345759866384
                 11446.6      -0.756031388834202       0.642559814817922   -0.000162402582480055   -0.000173719879202803   -0.000162402582480055   -0.000173719879202803      -0.756031388834202       0.642559814817922
                 11446.8      -0.754944650810554       0.643777868061636   -0.000163996812566528   -0.000174812774286843   -0.000163996812566528   -0.000174812774286843      -0.754944650810554       0.643777868061636
                   11447      -0.753850569359207       0.644999933038746   -0.000165608867673257   -0.000175912089713111   -0.000165608867673257   -0.000175912089713111      -0.753850569359207       0.644999933038746
                 11447.2      -0.752749077491296       0.646226023143964   -0.000167238959834833   -0.000177017827675888   -0.000167238959834833   -0.000177017827675888      -0.752749077491296       0.646226023143964
                 11447.4      -0.751640107445242       0.647456151722318   -0.000168887303437425   -0.000178129989055654   -0.000168887303437425   -0.000178129989055654      -0.751640107445242       0.647456151722318
                 11447.6       -0.75052359067595       0.648690332065945   -0.000170554115231183   -0.000179248573372651   -0.000170554115231183   -0.000179248573372651       -0.75052359067595       0.648690332065945
                 11447.8      -0.749399457843788       0.649928577410812   -0.000172239614342043   -0.000180373578739178   -0.000172239614342043   -0.000180373578739178      -0.749399457843788       0.649928577410812
                   11448      -0.748267638803489       0.651170900933242    -0.00017394402228267   -0.000181505001810415    -0.00017394402228267   -0.000181505001810415      -0.748267638803489       0.651170900933242
                 11448.2      -0.747128062592749       0.652417315746455   -0.000175667562962813   -0.000182642837733995   -0.000175667562962813   -0.000182642837733995      -0.747128062592749       0.652417315746455
                 11448.4      -0.745980657420738       0.653667834896923   -0.000177410462698748   -0.000183787080098052   -0.000177410462698748   -0.000183787080098052      -0.745980657420738       0.653667834896923
                 11448.6      -0.744825350656326       0.654922471360688   -0.000179172950221963   -0.000184937720877903   -0.000179172950221963   -0.000184937720877903      -0.744825350656326       0.654922471360688
                 11448.8      -0.743662068816217       0.656181238039498   -0.000180955256686829   -0.000186094750381134   -0.000180955256686829   -0.000186094750381134      -0.743662068816217       0.656181238039498
                   11449      -0.742490737552786       0.657444147756902   -0.000182757615677432   -0.000187258157191249   -0.000182757615677432   -0.000187258157191249      -0.742490737552786       0.657444147756902
                 11449.2      -0.741311281641793       0.658711213254178   -0.000184580263213287   -0.000188427928109675   -0.000184580263213287   -0.000188427928109675      -0.741311281641793       0.658711213254178
                 11449.4      -0.740123624969821       0.659982447186197    -0.00018642343775407   -0.000189604048096213    -0.00018642343775407   -0.000189604048096213      -0.740123624969821       0.659982447186197
                 11449.6      -0.738927690521561       0.661257862117115    -0.00018828738020314   -0.000190786500207789    -0.00018828738020314   -0.000190786500207789      -0.738927690521561       0.661257862117115
                 11449.8      -0.737723400366861       0.662537470515961   -0.000190172333909865   -0.000191975265535525   -0.000190172333909865   -0.000191975265535525      -0.737723400366861       0.662537470515961
                   11450      -0.736510675647532        0.66382128475213   -0.000192078544670741   -0.000193170323140103   -0.000192078544670741   -0.000193170323140103      -0.736510675647532        0.66382128475213
                 11450.2      -0.735289436563974       0.665109317090688   -0.000194006260729067   -0.000194371649985296   -0.000194006260729067   -0.000194371649985296      -0.735289436563974       0.665109317090688
                 11450.4      -0.734059602361563       0.666401579687572   -0.000195955732773254     -0.0001955792208697   -0.000195955732773254     -0.0001955792208697      -0.734059602361563       0.666401579687572
                 11450.6      -0.732821091316765       0.667698084584683   -0.000197927213933661   -0.000196793008356619   -0.000197927213933661   -0.000196793008356619      -0.732821091316765       0.667698084584683
                 11450.8      -0.731573820723075       0.668998843704773   -0.000199920959777778   -0.000198012982701987   -0.000199920959777778   -0.000198012982701987      -0.731573820723075       0.668998843704773
                   11451      -0.730317706876668       0.670303868846246   -0.000201937228303801    -0.00019923911178036   -0.000201937228303801    -0.00019923911178036      -0.730317706876668       0.670303868846246
                 11451.2      -0.729052665061861       0.671613171677741   -0.000203976279932371   -0.000200471361008853   -0.000203976279932371   -0.000200471361008853      -0.729052665061861       0.671613171677741
                 11451.4      -0.727778609536233       0.672926763732658   -0.000206038377496588   -0.000201709693269094   -0.000206038377496588   -0.000201709693269094      -0.727778609536233       0.672926763732658
                 11451.6      -0.726495453515577        0.67424465640344   -0.000208123786229949   -0.000202954068826982   -0.000208123786229949   -0.000202954068826982      -0.726495453515577        0.67424465640344
                 11451.8      -0.725203109158556       0.675566860935721   -0.000210232773752282   -0.000204204445250325   -0.000210232773752282   -0.000204204445250325      -0.725203109158556       0.675566860935721
                   11452      -0.723901487551089       0.676893388422316   -0.000212365610053519   -0.000205460777324256   -0.000212365610053519   -0.000205460777324256      -0.723901487551089       0.676893388422316
                 11452.2      -0.722590498690492       0.678224249797016   -0.000214522567475168   -0.000206723016964366   -0.000214522567475168   -0.000206723016964366      -0.722590498690492       0.678224249797016
                 11452.4      -0.721270051469303       0.679559455828236   -0.000216703920689441   -0.000207991113127549   -0.000216703920689441   -0.000207991113127549      -0.721270051469303       0.679559455828236
                 11452.6      -0.719940053658845       0.680899017112468    -0.00021890994667584   -0.000209265011720447    -0.00021890994667584   -0.000209265011720447      -0.719940053658845       0.680899017112468
                 11452.8      -0.718600411892523       0.682242944067527   -0.000221140924695068    -0.00021054465550545   -0.000221140924695068    -0.00021054465550545      -0.718600411892523       0.682242944067527
                   11453      -0.717251031648811       0.683591246925614   -0.000223397136260189   -0.000211829984004222   -0.000223397136260189   -0.000211829984004222      -0.717251031648811       0.683591246925614
                 11453.2      -0.715891817233908       0.684943935726216   -0.000225678865104918   -0.000213120933398702   -0.000225678865104918   -0.000213120933398702      -0.715891817233908       0.684943935726216
                 11453.4      -0.714522671764158       0.686301020308738    -0.00022798639714874   -0.000214417436429447    -0.00022798639714874   -0.000214417436429447      -0.714522671764158       0.686301020308738
                 11453.6      -0.713143497148096       0.687662510304975   -0.000230320020458908   -0.000215719422291356   -0.000230320020458908   -0.000215719422291356      -0.713143497148096       0.687662510304975
                 11453.8      -0.711754194068188       0.689028415131372   -0.000232680025209061   -0.000217026816526676   -0.000232680025209061   -0.000217026816526676      -0.711754194068188       0.689028415131372
                   11454      -0.710354661962299       0.690398743980997    -0.00023506670363419    -0.00021833954091515    -0.00023506670363419    -0.00021833954091515      -0.710354661962299       0.690398743980997
                 11454.2      -0.708944799004779       0.691773505815343    -0.00023748034998199    -0.00021965751336139    -0.00023748034998199    -0.00021965751336139      -0.708944799004779       0.691773505815343
                 11454.4      -0.707524502087211       0.693152709355896   -0.000239921260460305   -0.000220980647779322   -0.000239921260460305   -0.000220980647779322      -0.707524502087211       0.693152709355896
                 11454.6      -0.706093666798837        0.69453636307543   -0.000242389733180449   -0.000222308853973644   -0.000242389733180449   -0.000222308853973644      -0.706093666798837        0.69453636307543
                 11454.8       -0.70465218740663        0.69592447518907    -0.00024488606809625   -0.000223642037518253    -0.00024488606809625   -0.000223642037518253       -0.70465218740663        0.69592447518907
                   11455      -0.703199956834987       0.697317053645101   -0.000247410566938611   -0.000224980099631576   -0.000247410566938611   -0.000224980099631576      -0.703199956834987       0.697317053645101
                 11455.2       -0.70173686664512       0.698714106115471   -0.000249963533145283   -0.000226322937048693   -0.000249963533145283   -0.000226322937048693       -0.70173686664512       0.698714106115471
                 11455.4      -0.700262807013964       0.700115639986105   -0.000252545271785854    -0.00022767044189031   -0.000252545271785854    -0.00022767044189031      -0.700262807013964       0.700115639986105
                 11455.6      -0.698777666712812       0.701521662346851   -0.000255156089481398    -0.00022902250152834   -0.000255156089481398    -0.00022902250152834      -0.698777666712812       0.701521662346851
                 11455.8      -0.697281333085501       0.702932179981199   -0.000257796294318804   -0.000230378998448179   -0.000257796294318804   -0.000230378998448179      -0.697281333085501       0.702932179981199
                   11456      -0.695773692026213       0.704347199355666   -0.000260466195759387   -0.000231739810107528   -0.000260466195759387   -0.000231739810107528      -0.695773692026213       0.704347199355666
                 11456.2        -0.6942546279569       0.705766726608883   -0.000263166104541526   -0.000233104808791694   -0.000263166104541526   -0.000233104808791694        -0.6942546279569       0.705766726608883
                 11456.4      -0.692724023804242       0.707190767540387   -0.000265896332577135   -0.000234473861465367   -0.000265896332577135   -0.000234473861465367      -0.692724023804242       0.707190767540387
                 11456.6      -0.691181760976238       0.708619327599051   -0.000268657192841536   -0.000235846829620718   -0.000268657192841536   -0.000235846829620718      -0.691181760976238       0.708619327599051
                 11456.8      -0.689627719338297       0.710052411871247   -0.000271448999256608   -0.000237223569121851   -0.000271448999256608   -0.000237223569121851      -0.689627719338297       0.710052411871247
                   11457      -0.688061777189006       0.711490025068549   -0.000274272066566585   -0.000238603930045386   -0.000274272066566585   -0.000238603930045386      -0.688061777189006       0.711490025068549
                 11457.2      -0.686483811235313       0.712932171515205   -0.000277126710206594   -0.000239987756517319   -0.000277126710206594   -0.000239987756517319      -0.686483811235313       0.712932171515205
                 11457.4      -0.684893696567337       0.714378855135174   -0.000280013246163221   -0.000241374886545909   -0.000280013246163221   -0.000241374886545909      -0.684893696567337       0.714378855135174
                 11457.6      -0.683291306632692       0.715830079438796   -0.000282931990826892   -0.000242765151850613   -0.000282931990826892   -0.000242765151850613      -0.683291306632692       0.715830079438796
                 11457.8      -0.681676513210309       0.717285847509096    -0.00028588326083572   -0.000244158377687003    -0.00028588326083572   -0.000244158377687003      -0.681676513210309       0.717285847509096
                   11458      -0.680049186383829       0.718746161987642   -0.000288867372910263    -0.00024555438266754   -0.000288867372910263    -0.00024555438266754      -0.680049186383829       0.718746161987642
                 11458.2      -0.678409194514417        0.72021102506005   -0.000291884643679019   -0.000246952978578254   -0.000291884643679019   -0.000246952978578254      -0.678409194514417        0.72021102506005
                 11458.4      -0.676756404213132       0.721680438441017   -0.000294935389493977   -0.000248353970191144   -0.000294935389493977   -0.000248353970191144      -0.676756404213132       0.721680438441017
                 11458.6      -0.675090680312713       0.723154403358975   -0.000298019926236003   -0.000249757155072363   -0.000298019926236003   -0.000249757155072363      -0.675090680312713       0.723154403358975
                 11458.8      -0.673411885838953       0.724632920540175   -0.000301138569109227   -0.000251162323385947   -0.000301138569109227   -0.000251162323385947      -0.673411885838953       0.724632920540175
                   11459      -0.671719881981349       0.726115990192484   -0.000304291632424526   -0.000252569257693317   -0.000304291632424526   -0.000252569257693317      -0.671719881981349       0.726115990192484
                 11459.2      -0.670014528063392       0.727603611988517   -0.000307479429370863   -0.000253977732748164   -0.000307479429370863   -0.000253977732748164      -0.670014528063392       0.727603611988517
                 11459.4      -0.668295681512132       0.729095785048423   -0.000310702271774603   -0.000255387515286969   -0.000310702271774603   -0.000255387515286969      -0.668295681512132       0.729095785048423
                 11459.6      -0.666563197827249       0.730592507922088   -0.000313960469845802    -0.00025679836381491   -0.000313960469845802    -0.00025679836381491      -0.666563197827249       0.730592507922088
                 11459.8       -0.66481693054953       0.732093778570807    -0.00031725433191102    -0.00025821002838718    -0.00031725433191102    -0.00025821002838718       -0.66481693054953       0.732093778570807
                   11460      -0.663056731228712       0.733599594348456   -0.000320584164132123   -0.000259622250385711   -0.000320584164132123   -0.000259622250385711      -0.663056731228712       0.733599594348456
                 11460.2      -0.661282449390713       0.735109951982086   -0.000323950270210325   -0.000261034762291216   -0.000323950270210325   -0.000261034762291216      -0.661282449390713       0.735109951982086
                 11460.4      -0.659493932504252       0.736624847551933   -0.000327352951074816   -0.000262447287450534   -0.000327352951074816   -0.000262447287450534      -0.659493932504252       0.736624847551933
                 11460.6      -0.657691025946822       0.738144276470838   -0.000330792504555269   -0.000263859539839252   -0.000330792504555269   -0.000263859539839252      -0.657691025946822       0.738144276470838
                 11460.8      -0.655873572969973       0.739668233463076   -0.000334269225037592   -0.000265271223819611   -0.000334269225037592   -0.000265271223819611      -0.655873572969973       0.739668233463076
                   11461       -0.65404141466397       0.741196712542516   -0.000337783403101974    -0.00026668203389363   -0.000337783403101974    -0.00026668203389363       -0.65404141466397       0.741196712542516
                 11461.2      -0.652194389921712       0.742729706990172   -0.000341335325142635   -0.000268091654451505   -0.000341335325142635   -0.000268091654451505      -0.652194389921712       0.742729706990172
                 11461.4      -0.650332335402001       0.744267209331041   -0.000344925272968227   -0.000269499759515215   -0.000344925272968227   -0.000269499759515215      -0.650332335402001       0.744267209331041
                 11461.6      -0.648455085492031       0.745809211310291   -0.000348553523382249   -0.000270906012477424   -0.000348553523382249   -0.000270906012477424      -0.648455085492031       0.745809211310291
                 11461.8      -0.646562472269218       0.747355703868679   -0.000352220347742292   -0.000272310065835606   -0.000352220347742292   -0.000272310065835606      -0.646562472269218       0.747355703868679
                   11462        -0.6446543254622       0.748906677117291   -0.000355926011497454   -0.000273711560921522   -0.000355926011497454   -0.000273711560921522        -0.6446543254622       0.748906677117291
                 11462.2      -0.642730472411153       0.750462120311449    -0.00035967077370262   -0.000275110127625985    -0.00035967077370262   -0.000275110127625985      -0.642730472411153       0.750462120311449
                 11462.4      -0.640790738027216       0.752022021823927    -0.00036345488650894   -0.000276505384119092    -0.00036345488650894   -0.000276505384119092      -0.640790738027216       0.752022021823927
                 11462.6      -0.638834944751245       0.753586369117241   -0.000367278594628941    -0.00027789693656582   -0.000367278594628941    -0.00027789693656582      -0.638834944751245       0.753586369117241
                 11462.8      -0.636862912511604       0.755155148715217   -0.000371142134775687   -0.000279284378837259   -0.000371142134775687   -0.000279284378837259      -0.636862912511604       0.755155148715217
                   11463      -0.634874458681265       0.756728346173578   -0.000375045735074212   -0.000280667292217372   -0.000375045735074212   -0.000280667292217372      -0.634874458681265       0.756728346173578
                 11463.2      -0.632869398033901       0.758305946049753     -0.0003789896144446   -0.000282045245105596     -0.0003789896144446   -0.000282045245105596      -0.632869398033901       0.758305946049753
                 11463.4      -0.630847542699239       0.759887931871654   -0.000382973981954801   -0.000283417792715218   -0.000382973981954801   -0.000283417792715218      -0.630847542699239       0.759887931871654
                 11463.6      -0.628808702117454        0.76147428610556   -0.000386999036142294     -0.0002847844767678   -0.000386999036142294     -0.0002847844767678      -0.628808702117454        0.76147428610556
                 11463.8      -0.626752682992549       0.763064990123075   -0.000391064964303161   -0.000286144825183854   -0.000391064964303161   -0.000286144825183854      -0.626752682992549       0.763064990123075
                   11464      -0.624679289245048       0.764660024166886   -0.000395171941746499   -0.000287498351769711   -0.000395171941746499   -0.000287498351769711      -0.624679289245048       0.764660024166886
                 11464.2      -0.622588321963479       0.766259367315664   -0.000399320131013531   -0.000288844555901141   -0.000399320131013531   -0.000288844555901141      -0.622588321963479       0.766259367315664
                 11464.4      -0.620479579354988       0.767862997447792   -0.000403509681059145   -0.000290182922203711   -0.000403509681059145   -0.000290182922203711      -0.620479579354988       0.767862997447792
                 11464.6      -0.618352856694946       0.769470891203969   -0.000407740726394363   -0.000291512920230235   -0.000407740726394363   -0.000291512920230235      -0.618352856694946       0.769470891203969
                 11464.8      -0.616207946275552        0.77108302394865    -0.00041201338618795   -0.000292834004135582    -0.00041201338618795   -0.000292834004135582      -0.616207946275552        0.77108302394865
                   11465       -0.61404463735329       0.772699369730351   -0.000416327763325531    -0.00029414561234926   -0.000416327763325531    -0.00029414561234926       -0.61404463735329       0.772699369730351
                 11465.2      -0.611862716095458       0.774319901240613   -0.000420683943423827    -0.00029544716724597   -0.000420683943423827    -0.00029544716724597      -0.611862716095458       0.774319901240613
                 11465.4      -0.609661965525438       0.775944589771801   -0.000425081993798582    -0.00029673807481473   -0.000425081993798582    -0.00029673807481473      -0.609661965525438       0.775944589771801
                 11465.6      -0.607442165467036       0.777573405173445   -0.000429521962383414   -0.000298017724326794   -0.000429521962383414   -0.000298017724326794      -0.607442165467036       0.777573405173445
                 11465.8      -0.605203092487401       0.779206315807404   -0.000434003876598242   -0.000299285488003112   -0.000434003876598242   -0.000299285488003112      -0.605203092487401       0.779206315807404
                   11466      -0.602944519839116       0.780843288501368   -0.000438527742163831   -0.000300540720681512   -0.000438527742163831   -0.000300540720681512      -0.602944519839116       0.780843288501368
                 11466.2      -0.600666217400746        0.78248428850114   -0.000443093541861377   -0.000301782759484569   -0.000443093541861377   -0.000301782759484569      -0.600666217400746        0.78248428850114
                 11466.4      -0.598367951616401       0.784129279421231   -0.000447701234233453   -0.000303010923488466   -0.000447701234233453   -0.000303010923488466      -0.598367951616401       0.784129279421231
                 11466.6       -0.59604948543392       0.785778223193975   -0.000452350752224434   -0.000304224513393722   -0.000452350752224434   -0.000304224513393722       -0.59604948543392       0.785778223193975
                 11466.8      -0.593710578241797       0.787431080017003   -0.000457042001757339   -0.000305422811198485   -0.000457042001757339   -0.000305422811198485      -0.593710578241797       0.787431080017003
                   11467       -0.59135098580479       0.789087808299042   -0.000461774860244296   -0.000306605079875181   -0.000461774860244296   -0.000306605079875181       -0.59135098580479       0.789087808299042