! This file was generated by CST Filter Designer 3D
! _________________________________________________
! Date:                         05.11.2025 19:49:13

# MHZ S RI R 50
!              Frequency                 Re(S11)                 Im(S11)                 Re(S21)                 Im(S21)                 Re(S12)                 Im(S12)                 Re(S22)                 Im(S22)
                   11440      -0.786265801701227       0.606855572699752   -0.000119070035691811   -0.000142453163156168   -0.000119070035691811   -0.000142453163156168      -0.786265801701227       0.606855572699752
                 11440.2      -0.785373047740389       0.607960578409905   -0.000120199534988333    -0.00014336641484176   -0.000120199534988333    -0.00014336641484176      -0.785373047740389       0.607960578409905
                 11440.4      -0.784474644196542       0.609069200160918   -0.000121341522199312   -0.000144285923283097   -0.000121341522199312   -0.000144285923283097      -0.784474644196542       0.609069200160918
                 11440.6      -0.783570542847968       0.610181451885203   -0.000122496151438857   -0.000145211721710454   -0.000122496151438857   -0.000145211721710454      -0.783570542847968       0.610181451885203
                 11440.8      -0.782660694952776       0.611297347530489   -0.000123663578838348   -0.000146143843136478   -0.000123663578838348   -0.000146143843136478      -0.782660694952776       0.611297347530489
                   11441      -0.781745051242084        0.61241690105854   -0.000124843962572036   -0.000147082320340531   -0.000124843962572036   -0.000147082320340531      -0.781745051242084        0.61241690105854
                 11441.2      -0.780823561913112       0.613540126443816    -0.00012603746288286    -0.00014802718585251    -0.00012603746288286    -0.00014802718585251      -0.780823561913112       0.613540126443816
                 11441.4      -0.779896176622175       0.614667037672073   -0.000127244242108483   -0.000148978471936132   -0.000127244242108483   -0.000148978471936132      -0.779896176622175       0.614667037672073
                 11441.6      -0.778962844477574       0.615797648738912   -0.000128464464707528   -0.000149936210571658   -0.000128464464707528   -0.000149936210571658      -0.778962844477574       0.615797648738912
                 11441.8      -0.778023514032323       0.616931973648359   -0.000129698297286129   -0.000150900433438127   -0.000129698297286129   -0.000150900433438127      -0.778023514032323       0.616931973648359
                   11442      -0.777078133276876       0.618070026411247   -0.000130945908624537   -0.000151871171894892   -0.000130945908624537   -0.000151871171894892      -0.777078133276876       0.618070026411247
                 11442.2      -0.776126649631597       0.619211821043736   -0.000132207469704122   -0.000152848456962718   -0.000132207469704122   -0.000152848456962718      -0.776126649631597       0.619211821043736
                 11442.4      -0.775169009939248       0.620357371565613   -0.000133483153734426   -0.000153832319304124   -0.000133483153734426   -0.000153832319304124      -0.775169009939248       0.620357371565613
                 11442.6      -0.774205160457258       0.621506691998664   -0.000134773136180528   -0.000154822789203217   -0.000134773136180528   -0.000154822789203217      -0.774205160457258       0.621506691998664
                 11442.8       -0.77323504684993        0.62265979636493   -0.000136077594790541   -0.000155819896544809   -0.000136077594790541   -0.000155819896544809       -0.77323504684993        0.62265979636493
                   11443      -0.772258614180498       0.623816698684935   -0.000137396709623342   -0.000156823670792913   -0.000137396709623342   -0.000156823670792913      -0.772258614180498       0.623816698684935
                 11443.2      -0.771275806903067       0.624977412975851   -0.000138730663076462   -0.000157834140968537   -0.000138730663076462   -0.000157834140968537      -0.771275806903067       0.624977412975851
                 11443.4      -0.770286568854441       0.626141953249596   -0.000140079639914148   -0.000158851335626782   -0.000140079639914148   -0.000158851335626782      -0.770286568854441       0.626141953249596
                 11443.6      -0.769290843245796       0.627310333510891   -0.000141443827295614   -0.000159875282833227   -0.000141443827295614   -0.000159875282833227      -0.769290843245796       0.627310333510891
                 11443.8      -0.768288572654222       0.628482567755274   -0.000142823414803476   -0.000160906010139592   -0.000142823414803476   -0.000160906010139592      -0.768288572654222       0.628482567755274
                   11444      -0.767279699014166       0.629658669966993    -0.00014421859447227   -0.000161943544558588    -0.00014421859447227   -0.000161943544558588      -0.767279699014166       0.629658669966993
                 11444.2      -0.766264163608692       0.630838654116907   -0.000145629560817191   -0.000162987912538046   -0.000145629560817191   -0.000162987912538046      -0.766264163608692       0.630838654116907
                 11444.4      -0.765241907060638       0.632022534160266   -0.000147056510862918   -0.000164039139934201   -0.000147056510862918   -0.000164039139934201      -0.765241907060638       0.632022534160266
                 11444.6      -0.764212869323605        0.63321032403447   -0.000148499644172594   -0.000165097251984171   -0.000148499644172594   -0.000165097251984171      -0.764212869323605        0.63321032403447
                 11444.8      -0.763176989672825       0.634402037656722   -0.000149959162876891   -0.000166162273277572   -0.000149959162876891   -0.000166162273277572      -0.763176989672825       0.634402037656722
                   11445      -0.762134206695868        0.63559768892163     -0.0001514352717032   -0.000167234227727272     -0.0001514352717032   -0.000167234227727272      -0.762134206695868        0.63559768892163
                 11445.2      -0.761084458283185       0.636797291698759   -0.000152928178004922   -0.000168313138539253   -0.000152928178004922   -0.000168313138539253      -0.761084458283185       0.636797291698759
                 11445.4       -0.76002768161855       0.638000859830041    -0.00015443809179077   -0.000169399028181511    -0.00015443809179077   -0.000169399028181511       -0.76002768161855       0.638000859830041
                 11445.6      -0.758963813169291       0.639208407127182    -0.00015596522575421   -0.000170491918352056    -0.00015596522575421   -0.000170491918352056      -0.758963813169291       0.639208407127182
                 11445.8      -0.757892788676368        0.64041994736898   -0.000157509795302937   -0.000171591829945932   -0.000157509795302937   -0.000171591829945932      -0.757892788676368        0.64041994736898
                   11446      -0.756814543144335       0.641635494298512   -0.000159072018588323   -0.000172698783021194   -0.000159072018588323   -0.000172698783021194      -0.756814543144335       0.641635494298512
                 11446.2      -0.755729010831111       0.642855061620274   -0.000160652116534922   -0.000173812796763879   -0.000160652116534922   -0.000173812796763879      -0.755729010831111       0.642855061620274
                 11446.4      -0.754636125237546       0.644078662997272   -0.000162250312870005   -0.000174933889451953   -0.000162250312870005   -0.000174933889451953      -0.754636125237546       0.644078662997272
                 11446.6      -0.753535819096901       0.645306312047936   -0.000163866834152983   -0.000176062078418098   -0.000163866834152983   -0.000176062078418098      -0.753535819096901       0.645306312047936
                 11446.8      -0.752428024364066       0.646538022343046   -0.000165501909804882   -0.000177197380011449   -0.000165501909804882   -0.000177197380011449      -0.752428024364066       0.646538022343046
                   11447      -0.751312672204671        0.64777380740248   -0.000167155772137673   -0.000178339809558136   -0.000167155772137673   -0.000178339809558136      -0.751312672204671        0.64777380740248
                 11447.2      -0.750189692983956       0.649013680691947   -0.000168828656383608    -0.00017948938132069   -0.000168828656383608    -0.00017948938132069      -0.750189692983956       0.649013680691947
                 11447.4      -0.749059016255519       0.650257655619544   -0.000170520800724335   -0.000180646108456179   -0.000170520800724335   -0.000180646108456179      -0.749059016255519       0.650257655619544
                 11447.6      -0.747920570749848       0.651505745532257   -0.000172232446319944    -0.00018181000297313   -0.000172232446319944    -0.00018181000297313      -0.747920570749848       0.651505745532257
                 11447.8      -0.746774284362613       0.652757963712395   -0.000173963837337905   -0.000182981075687215   -0.000173963837337905   -0.000182981075687215      -0.746774284362613       0.652757963712395
                   11448      -0.745620084142884       0.654014323373815   -0.000175715220981661   -0.000184159336175504   -0.000175715220981661   -0.000184159336175504      -0.745620084142884       0.654014323373815
                 11448.2      -0.744457896281023       0.655274837658154   -0.000177486847519172   -0.000185344792729498   -0.000177486847519172   -0.000185344792729498      -0.744457896281023       0.655274837658154
                 11448.4      -0.743287646096466        0.65653951963086   -0.000179278970311088   -0.000186537452306672   -0.000179278970311088   -0.000186537452306672      -0.743287646096466        0.65653951963086
                 11448.6      -0.742109258025229        0.65780838227719   -0.000181091845838743   -0.000187737320480675   -0.000181091845838743   -0.000187737320480675      -0.742109258025229        0.65780838227719
                 11448.8      -0.740922655607279       0.659081438497997   -0.000182925733731719   -0.000188944401389978   -0.000182925733731719   -0.000188944401389978      -0.740922655607279       0.659081438497997
                   11449       -0.73972776147362       0.660358701105486   -0.000184780896795169   -0.000190158697685104   -0.000184780896795169   -0.000190158697685104       -0.73972776147362       0.660358701105486
                 11449.2      -0.738524497333221       0.661640182818777   -0.000186657601036666   -0.000191380210474235   -0.000186657601036666   -0.000191380210474235      -0.738524497333221       0.661640182818777
                 11449.4      -0.737312783959665         0.6629258962594   -0.000188556115692702   -0.000192608939267304   -0.000188556115692702   -0.000192608939267304      -0.737312783959665         0.6629258962594
                 11449.6       -0.73609254117762       0.664215853946605    -0.00019047671325465   -0.000193844881918406    -0.00019047671325465   -0.000193844881918406       -0.73609254117762       0.664215853946605
                 11449.8      -0.734863687849066       0.665510068292558   -0.000192419669494222   -0.000195088034566537   -0.000192419669494222   -0.000195088034566537      -0.734863687849066       0.665510068292558
                   11450      -0.733626141859258       0.666808551597429   -0.000194385263488439   -0.000196338391574667   -0.000194385263488439   -0.000196338391574667      -0.733626141859258       0.666808551597429
                 11450.2      -0.732379820102492        0.66811131604428   -0.000196373777643884   -0.000197595945466978   -0.000196373777643884   -0.000197595945466978      -0.732379820102492        0.66811131604428
                 11450.4      -0.731124638467615       0.669418373693834   -0.000198385497720352   -0.000198860686864328   -0.000198385497720352   -0.000198860686864328      -0.731124638467615       0.669418373693834
                 11450.6      -0.729860511823249       0.670729736479122   -0.000200420712853828   -0.000200132604417877   -0.000200420712853828   -0.000200132604417877      -0.729860511823249       0.670729736479122
                 11450.8      -0.728587354002814       0.672045416199924   -0.000202479715578612   -0.000201411684740754   -0.000202479715578612   -0.000201411684740754      -0.728587354002814       0.672045416199924
                   11451       -0.72730507778925       0.673365424517084   -0.000204562801848684   -0.000202697912337807   -0.000204562801848684   -0.000202697912337807       -0.72730507778925       0.673365424517084
                 11451.2      -0.726013594899531       0.674689772946626   -0.000206670271058094   -0.000203991269533293   -0.000206670271058094   -0.000203991269533293      -0.726013594899531       0.674689772946626
                 11451.4      -0.724712815968816       0.676018472853764   -0.000208802426060543   -0.000205291736396585   -0.000208802426060543   -0.000205291736396585      -0.724712815968816       0.676018472853764
                 11451.6       -0.72340265053441        0.67735153544668   -0.000210959573187803   -0.000206599290665686   -0.000210959573187803   -0.000206599290665686       -0.72340265053441        0.67735153544668
                 11451.8      -0.722083007019416       0.678688971770136   -0.000213142022267094   -0.000207913907668594   -0.000213142022267094   -0.000207913907668594      -0.722083007019416       0.678688971770136
                   11452      -0.720753792716092       0.680030792698923    -0.00021535008663731   -0.000209235560242453    -0.00021535008663731   -0.000209235560242453      -0.720753792716092       0.680030792698923
                 11452.2      -0.719414913768937       0.681377008931082   -0.000217584083163947   -0.000210564218650382   -0.000217584083163947   -0.000210564218650382      -0.719414913768937       0.681377008931082
                 11452.4      -0.718066275157449       0.682727630980984   -0.000219844332252772   -0.000211899850496007   -0.000219844332252772   -0.000211899850496007      -0.718066275157449       0.682727630980984
                 11452.6      -0.716707780678595       0.684082669172175   -0.000222131157862038   -0.000213242420635554   -0.000222131157862038   -0.000213242420635554      -0.716707780678595       0.684082669172175
                 11452.8       -0.71533933292899       0.685442133630008   -0.000224444887513164   -0.000214591891087464   -0.000224444887513164   -0.000214591891087464       -0.71533933292899       0.685442133630008
                   11453      -0.713960833286744       0.686806034274071   -0.000226785852299836   -0.000215948220939491   -0.000226785852299836   -0.000215948220939491      -0.713960833286744       0.686806034274071
                 11453.2      -0.712572181892955       0.688174380810429   -0.000229154386895467   -0.000217311366253226   -0.000229154386895467   -0.000217311366253226      -0.712572181892955       0.688174380810429
                 11453.4      -0.711173277632948       0.689547182723579   -0.000231550829558726   -0.000218681279965912   -0.000231550829558726   -0.000218681279965912      -0.711173277632948       0.689547182723579
                 11453.6      -0.709764018117103        0.69092444926823   -0.000233975522137269   -0.000220057911789566   -0.000233975522137269   -0.000220057911789566      -0.709764018117103        0.69092444926823
                 11453.8      -0.708344299661357       0.692306189460841   -0.000236428810069426   -0.000221441208107324   -0.000236428810069426   -0.000221441208107324      -0.708344299661357       0.692306189460841
                   11454      -0.706914017267419       0.693692412070853   -0.000238911042383628   -0.000222831111866836   -0.000238911042383628   -0.000222831111866836      -0.706914017267419       0.693692412070853
                 11454.2      -0.705473064602554       0.695083125611728   -0.000241422571695676   -0.000224227562470802   -0.000241422571695676   -0.000224227562470802      -0.705473064602554       0.695083125611728
                 11454.4      -0.704021333979026       0.696478338331727   -0.000243963754203592   -0.000225630495664481   -0.000243963754203592   -0.000225630495664481      -0.704021333979026       0.696478338331727
                 11454.6      -0.702558716333176       0.697878058204399   -0.000246534949679887   -0.000227039843420104   -0.000246534949679887   -0.000227039843420104      -0.702558716333176       0.697878058204399
                 11454.8      -0.701085101204115       0.699282292918802   -0.000249136521461161   -0.000228455533818127   -0.000249136521461161   -0.000228455533818127      -0.701085101204115       0.699282292918802
                   11455      -0.699600376712031       0.700691049869447   -0.000251768836434878   -0.000229877490925269   -0.000251768836434878   -0.000229877490925269      -0.699600376712031       0.700691049869447
                 11455.2      -0.698104429536135       0.702104336145912   -0.000254432265023066   -0.000231305634669181   -0.000254432265023066   -0.000231305634669181      -0.698104429536135       0.702104336145912
                 11455.4      -0.696597144892114       0.703522158522243   -0.000257127181163012    -0.00023273988070982   -0.000257127181163012    -0.00023273988070982      -0.696597144892114       0.703522158522243
                 11455.6      -0.695078406509275       0.704944523445942   -0.000259853962284464   -0.000234180140307251   -0.000259853962284464   -0.000234180140307251      -0.695078406509275       0.704944523445942
                 11455.8      -0.693548096607203       0.706371437026717   -0.000262612989283407   -0.000235626320185958   -0.000262612989283407   -0.000235626320185958      -0.693548096607203       0.706371437026717
                   11456       -0.69200609587201       0.707802905024856   -0.000265404646492112   -0.000237078322395496   -0.000265404646492112   -0.000237078322395496       -0.69200609587201       0.707802905024856
                 11456.2      -0.690452283432164       0.709238932839274   -0.000268229321645244   -0.000238536044167403   -0.000268229321645244   -0.000238536044167403      -0.690452283432164       0.709238932839274
                 11456.4      -0.688886536833832       0.710679525495233   -0.000271087405841933   -0.000239999377768349   -0.000271087405841933   -0.000239999377768349      -0.688886536833832       0.710679525495233
                 11456.6      -0.687308732015802       0.712124687631668   -0.000273979293503437    -0.00024146821034935   -0.000273979293503437    -0.00024146821034935      -0.687308732015802       0.712124687631668
                 11456.8      -0.685718743283887       0.713574423488202   -0.000276905382326361   -0.000242942423791059   -0.000276905382326361   -0.000242942423791059      -0.685718743283887       0.713574423488202
                   11457      -0.684116443284957       0.715028736891675   -0.000279866073230874   -0.000244421894544876   -0.000279866073230874   -0.000244421894544876      -0.684116443284957       0.715028736891675
                 11457.2      -0.682501702980356       0.716487631242403   -0.000282861770304124   -0.000245906493470037   -0.000282861770304124   -0.000245906493470037      -0.682501702980356       0.716487631242403
                 11457.4      -0.680874391618906       0.717951109499954     -0.0002858928807382   -0.000247396085666364     -0.0002858928807382   -0.000247396085666364      -0.680874391618906       0.717951109499954
                 11457.6      -0.679234376709382       0.719419174168531   -0.000288959814762542   -0.000248890530302699   -0.000288959814762542   -0.000248890530302699      -0.679234376709382       0.719419174168531
                 11457.8      -0.677581523992448       0.720891827281935   -0.000292062985570539   -0.000250389680440925   -0.000292062985570539   -0.000250389680440925      -0.677581523992448       0.720891827281935
                   11458      -0.675915697412122       0.722369070388045   -0.000295202809239851   -0.000251893382855404   -0.000295202809239851   -0.000251893382855404      -0.675915697412122       0.722369070388045
                 11458.2      -0.674236759086626         0.7238509045329   -0.000298379704646404   -0.000253401477847884   -0.000298379704646404   -0.000253401477847884      -0.674236759086626         0.7238509045329
                 11458.4      -0.672544569278733       0.725337330244269   -0.000301594093371469    -0.00025491379905762   -0.000301594093371469    -0.00025491379905762      -0.672544569278733       0.725337330244269
                 11458.6      -0.670838986365505       0.726828347514778   -0.000304846399601723   -0.000256430173266759   -0.000304846399601723   -0.000256430173266759      -0.670838986365505       0.726828347514778
                 11458.8      -0.669119866807561       0.728323955784437   -0.000308137050021565   -0.000257950420200714   -0.000308137050021565   -0.000257950420200714      -0.669119866807561       0.728323955784437
                   11459      -0.667387065117577       0.729824153922818   -0.000311466473697931   -0.000259474352323715   -0.000311466473697931   -0.000259474352323715      -0.667387065117577       0.729824153922818
                 11459.2      -0.665640433828382       0.731328940210518   -0.000314835101956455   -0.000261001774629093   -0.000314835101956455   -0.000261001774629093      -0.665640433828382       0.731328940210518
                 11459.4      -0.663879823460281       0.732838312320225   -0.000318243368249257   -0.000262532484424529   -0.000318243368249257   -0.000262532484424529      -0.663879823460281       0.732838312320225
                 11459.6      -0.662105082487822       0.734352267297137   -0.000321691708013488   -0.000264066271111962   -0.000321691708013488   -0.000264066271111962      -0.662105082487822       0.734352267297137
                 11459.8      -0.660316057305943       0.735870801538801   -0.000325180558520304   -0.000265602915962124   -0.000325180558520304   -0.000265602915962124      -0.660316057305943       0.735870801538801
                   11460      -0.658512592195402       0.737393910774386   -0.000328710358713914   -0.000267142191883668   -0.000328710358713914   -0.000267142191883668      -0.658512592195402       0.737393910774386
                 11460.2      -0.656694529287566       0.738921590043316   -0.000332281549040074   -0.000268683863186728   -0.000332281549040074   -0.000268683863186728      -0.656694529287566       0.738921590043316
                 11460.4      -0.654861708528523        0.74045383367326   -0.000335894571263558   -0.000270227685340841   -0.000335894571263558   -0.000270227685340841      -0.654861708528523        0.74045383367326
                 11460.6      -0.653013967642493       0.741990635257455   -0.000339549868274061   -0.000271773404727157   -0.000339549868274061   -0.000271773404727157      -0.653013967642493       0.741990635257455
                 11460.8      -0.651151142094494       0.743531987631378   -0.000343247883880051   -0.000273320758384871   -0.000343247883880051   -0.000273320758384871      -0.651151142094494       0.743531987631378
                   11461      -0.649273065052319       0.745077882848674   -0.000346989062589837   -0.000274869473751733   -0.000346989062589837   -0.000274869473751733      -0.649273065052319       0.745077882848674
                 11461.2      -0.647379567347715       0.746628312156404   -0.000350773849379417   -0.000276419268398652   -0.000350773849379417   -0.000276419268398652      -0.647379567347715       0.746628312156404
                 11461.4      -0.645470477436859       0.748183265969494   -0.000354602689446271   -0.000277969849758211   -0.000354602689446271   -0.000277969849758211      -0.645470477436859       0.748183265969494
                 11461.6      -0.643545621359978       0.749742733844464   -0.000358476027948656   -0.000279520914847133   -0.000358476027948656   -0.000279520914847133      -0.643545621359978       0.749742733844464
                 11461.8       -0.64160482270025       0.751306704452302   -0.000362394309729423   -0.000281072149982524   -0.000362394309729423   -0.000281072149982524       -0.64160482270025       0.751306704452302
                   11462      -0.639647902541814       0.752875165550574   -0.000366357979023945   -0.000282623230491937   -0.000366357979023945   -0.000282623230491937      -0.639647902541814       0.752875165550574
                 11462.2      -0.637674679427024       0.754448103954611   -0.000370367479151035   -0.000284173820417092   -0.000370367479151035   -0.000284173820417092      -0.637674679427024       0.754448103954611
                 11462.4      -0.635684969312737       0.756025505507917   -0.000374423252186487   -0.000285723572211342   -0.000374423252186487   -0.000285723572211342      -0.635684969312737       0.756025505507917
                 11462.6      -0.633678585525866       0.757607355051551   -0.000378525738617862   -0.000287272126430659   -0.000378525738617862   -0.000287272126430659      -0.633678585525866       0.757607355051551
                 11462.8      -0.631655338717897       0.759193636392692   -0.000382675376980244   -0.000288819111418318   -0.000382675376980244   -0.000288819111418318      -0.631655338717897       0.759193636392692
                   11463      -0.629615036818638       0.760784332272122   -0.000386872603471427   -0.000290364142983027   -0.000386872603471427   -0.000290364142983027      -0.629615036818638       0.760784332272122
                 11463.2      -0.627557484988879       0.762379424330826   -0.000391117851546217   -0.000291906824070713   -0.000391117851546217   -0.000291906824070713      -0.627557484988879       0.762379424330826
                 11463.4      -0.625482485572245       0.763978893075443   -0.000395411551488208   -0.000293446744429744   -0.000395411551488208   -0.000293446744429744      -0.625482485572245       0.763978893075443
                 11463.6      -0.623389838045999       0.765582717842714   -0.000399754129958458   -0.000294983480269733   -0.000399754129958458   -0.000294983480269733      -0.623389838045999       0.765582717842714
                 11463.8      -0.621279338970756       0.767190876762893   -0.000404146009519979   -0.000296516593913969   -0.000404146009519979   -0.000296516593913969      -0.621279338970756       0.767190876762893
                   11464      -0.619150781939421        0.76880334672183   -0.000408587608136227   -0.000298045633445252   -0.000408587608136227   -0.000298045633445252      -0.619150781939421        0.76880334672183
                 11464.2      -0.617003957524832       0.770420103322064   -0.000413079338643383   -0.000299570132345529   -0.000413079338643383   -0.000299570132345529      -0.617003957524832       0.770420103322064
                 11464.4      -0.614838653226446       0.772041120842621   -0.000417621608194472   -0.000301089609129143   -0.000417621608194472   -0.000301089609129143      -0.614838653226446       0.772041120842621
                 11464.6      -0.612654653415927       0.773666372197549   -0.000422214817674204   -0.000302603566969845   -0.000422214817674204   -0.000302603566969845      -0.612654653415927       0.773666372197549
                 11464.8      -0.610451739281638       0.775295828893144   -0.000426859361083135   -0.000304111493321637   -0.000426859361083135   -0.000304111493321637      -0.610451739281638       0.775295828893144
                   11465      -0.608229688771889         0.7769294609839   -0.000431555624889968   -0.000305612859533672   -0.000431555624889968   -0.000305612859533672      -0.608229688771889         0.7769294609839
                 11465.2      -0.605988276537162       0.778567237026957   -0.000436303987349956    -0.00030710712045914   -0.000436303987349956    -0.00030710712045914      -0.605988276537162       0.778567237026957
                 11465.4      -0.603727273870981       0.780209124035231   -0.000441104817788524   -0.000308593714058544   -0.000441104817788524   -0.000308593714058544      -0.603727273870981       0.780209124035231
                 11465.6      -0.601446448649737       0.781855087428926   -0.000445958475847703   -0.000310072060997296   -0.000445958475847703   -0.000310072060997296      -0.601446448649737       0.781855087428926
                 11465.8      -0.599145565271002       0.783505090985686   -0.000450865310694637   -0.000311541564238161   -0.000450865310694637   -0.000311541564238161      -0.599145565271002       0.783505090985686
                   11466      -0.596824384590905       0.785159096788919   -0.000455825660189063   -0.000313001608628374   -0.000455825660189063   -0.000313001608628374      -0.596824384590905       0.785159096788919
                 11466.2      -0.594482663859841       0.786817065174713   -0.000460839850009378   -0.000314451560482181   -0.000460839850009378   -0.000314451560482181      -0.594482663859841       0.786817065174713
                 11466.4      -0.592120156657104       0.788478954676871   -0.000465908192734033   -0.000315890767158697   -0.000465908192734033   -0.000315890767158697      -0.592120156657104       0.788478954676871
                 11466.6      -0.589736612824013       0.790144721970273   -0.000471030986877025   -0.000317318556635707   -0.000471030986877025   -0.000317318556635707      -0.589736612824013       0.790144721970273
                 11466.8      -0.587331778395665       0.791814321812386   -0.000476208515875014   -0.000318734237079666   -0.000476208515875014   -0.000318734237079666      -0.587331778395665       0.791814321812386
                   11467      -0.584905395531247       0.793487706982885   -0.000481441047023872   -0.000320137096412377   -0.000481441047023872   -0.000320137096412377      -0.584905395531247       0.793487706982885