! This file was generated by CST Filter Designer 3D
! _________________________________________________
! Date:                         06.11.2025 15:50:02

# MHZ S RI R 50
!              Frequency                 Re(S11)                 Im(S11)                 Re(S21)                 Im(S21)                 Re(S12)                 Im(S12)                 Re(S22)                 Im(S22)
                   11440      -0.793961135938614       0.597101025855874   -0.000107162326198349   -0.000133119389354095   -0.000107162326198349   -0.000133119389354095      -0.793961135938614       0.597101025855874
                 11440.2      -0.793109671517816       0.598182932406568   -0.000108164905000462   -0.000133972430967149   -0.000108164905000462   -0.000133972430967149      -0.793109671517816       0.598182932406568
                 11440.4      -0.792252871618218       0.599268395469714   -0.000109178430321642   -0.000134831419770208   -0.000109178430321642   -0.000134831419770208      -0.792252871618218       0.599268395469714
                 11440.6      -0.791390691108376       0.600357429238353   -0.000110203035880574   -0.000135696390778904   -0.000110203035880574   -0.000135696390778904      -0.791390691108376       0.600357429238353
                 11440.8      -0.790523084374018       0.601450047932952   -0.000111238857136751   -0.000136567378922141   -0.000111238857136751   -0.000136567378922141      -0.790523084374018       0.601450047932952
                   11441      -0.789650005311753       0.602546265800416   -0.000112286031312734   -0.000137444419030652   -0.000112286031312734   -0.000137444419030652      -0.789650005311753       0.602546265800416
                 11441.2      -0.788771407322712       0.603646097113051   -0.000113344697416608   -0.000138327545825142   -0.000113344697416608   -0.000138327545825142      -0.788771407322712       0.603646097113051
                 11441.4      -0.787887243306091       0.604749556167487   -0.000114414996264644    -0.00013921679390402   -0.000114414996264644    -0.00013921679390402      -0.787887243306091       0.604749556167487
                 11441.6      -0.786997465652611       0.605856657283541    -0.00011549707050416   -0.000140112197730701    -0.00011549707050416   -0.000140112197730701      -0.786997465652611       0.605856657283541
                 11441.8      -0.786102026237811       0.606967414803124   -0.000116591064636664   -0.000141013791620537   -0.000116591064636664   -0.000141013791620537      -0.786102026237811       0.606967414803124
                   11442      -0.785200876415359       0.608081843088965   -0.000117697125041071   -0.000141921609727197   -0.000117697125041071   -0.000141921609727197      -0.785200876415359       0.608081843088965
                 11442.2      -0.784293967010117       0.609199956523469   -0.000118815399997283    -0.00014283568602872   -0.000118815399997283    -0.00014283568602872      -0.784293967010117       0.609199956523469
                 11442.4      -0.783381248311223       0.610321769507376   -0.000119946039709828   -0.000143756054312981   -0.000119946039709828   -0.000143756054312981      -0.783381248311223       0.610321769507376
                 11442.6      -0.782462670064979       0.611447296458493    -0.00012108919633181   -0.000144682748162767    -0.00012108919633181   -0.000144682748162767      -0.782462670064979       0.611447296458493
                 11442.8      -0.781538181467676       0.612576551810313   -0.000122245023988981   -0.000145615800940298   -0.000122245023988981   -0.000145615800940298      -0.781538181467676       0.612576551810313
                   11443      -0.780607731158284       0.613709550010633   -0.000123413678804046    -0.00014655524577127   -0.000123413678804046    -0.00014655524577127      -0.780607731158284       0.613709550010633
                 11443.2      -0.779671267211036       0.614846305520098   -0.000124595318921142   -0.000147501115528355   -0.000124595318921142   -0.000147501115528355      -0.779671267211036       0.614846305520098
                 11443.4      -0.778728737127909       0.615986832810703   -0.000125790104530484   -0.000148453442814164   -0.000125790104530484   -0.000148453442814164      -0.778728737127909       0.615986832810703
                 11443.6      -0.777780087830966       0.617131146364252   -0.000126998197893217   -0.000149412259943654   -0.000126998197893217   -0.000149412259943654      -0.777780087830966       0.617131146364252
                 11443.8      -0.776825265654567       0.618279260670793   -0.000128219763366448   -0.000150377598925989   -0.000128219763366448   -0.000150377598925989      -0.776825265654567       0.618279260670793
                   11444       -0.77586421633751       0.619431190226938   -0.000129454967428393   -0.000151349491445756   -0.000129454967428393   -0.000151349491445756       -0.77586421633751       0.619431190226938
                 11444.2      -0.774896885014983       0.620586949534199   -0.000130703978703754   -0.000152327968843636   -0.000130703978703754   -0.000152327968843636      -0.774896885014983       0.620586949534199
                 11444.4      -0.773923216210439       0.621746553097223   -0.000131966967989193   -0.000153313062096411   -0.000131966967989193   -0.000153313062096411      -0.773923216210439       0.621746553097223
                 11444.6      -0.772943153827305       0.622910015422001   -0.000133244108279001   -0.000154304801796357   -0.000133244108279001   -0.000154304801796357      -0.772943153827305       0.622910015422001
                 11444.8      -0.771956641140592          0.624077351014    -0.00013453557479087   -0.000155303218129958    -0.00013453557479087   -0.000155303218129958      -0.771956641140592          0.624077351014
                   11445      -0.770963620788346       0.625248574376247   -0.000135841544991819   -0.000156308340855956   -0.000135841544991819   -0.000156308340855956      -0.770963620788346       0.625248574376247
                 11445.2      -0.769964034762958       0.626423700007368   -0.000137162198624261   -0.000157320199282716   -0.000137162198624261   -0.000157320199282716      -0.769964034762958       0.626423700007368
                 11445.4       -0.76895782440238       0.627602742399515   -0.000138497717732118    -0.00015833882224483   -0.000138497717732118    -0.00015833882224483       -0.76895782440238       0.627602742399515
                 11445.6      -0.767944930381146       0.628785716036284    -0.00013984828668712   -0.000159364238079032    -0.00013984828668712   -0.000159364238079032      -0.767944930381146       0.628785716036284
                 11445.8      -0.766925292701258        0.62997263539057   -0.000141214092215181   -0.000160396474599358   -0.000141214092215181   -0.000160396474599358      -0.766925292701258        0.62997263539057
                   11446      -0.765898850682956       0.631163514922297   -0.000142595323422813   -0.000161435559071478   -0.000142595323422813   -0.000161435559071478      -0.765898850682956       0.631163514922297
                 11446.2      -0.764865542955328       0.632358369076117   -0.000143992171823642   -0.000162481518186256   -0.000143992171823642   -0.000162481518186256      -0.764865542955328       0.632358369076117
                 11446.4      -0.763825307446722       0.633557212279074   -0.000145404831365028   -0.000163534378032522   -0.000145404831365028   -0.000163534378032522      -0.763825307446722       0.633557212279074
                 11446.6      -0.762778081375085       0.634760058938107    -0.00014683349845463   -0.000164594164068919    -0.00014683349845463   -0.000164594164068919      -0.762778081375085       0.634760058938107
                 11446.8       -0.76172380123806       0.635966923437573   -0.000148278371987118    -0.00016566090109496   -0.000148278371987118    -0.00016566090109496       -0.76172380123806       0.635966923437573
                   11447      -0.760662402802988       0.637177820136618   -0.000149739653370805   -0.000166734613221127   -0.000149739653370805   -0.000166734613221127      -0.760662402802988       0.637177820136618
                 11447.2      -0.759593821096685       0.638392763366538   -0.000151217546554374    -0.00016781532383811   -0.000151217546554374    -0.00016781532383811      -0.759593821096685       0.638392763366538
                 11447.4      -0.758517990395118       0.639611767427987   -0.000152712258053495   -0.000168903055585035   -0.000152712258053495   -0.000168903055585035      -0.758517990395118       0.639611767427987
                 11447.6      -0.757434844212871       0.640834846588137   -0.000154223996977464   -0.000169997830316756   -0.000154223996977464   -0.000169997830316756      -0.757434844212871       0.640834846588137
                 11447.8      -0.756344315292406       0.642062015077805   -0.000155752975055838   -0.000171099669070185   -0.000155752975055838   -0.000171099669070185      -0.756344315292406       0.642062015077805
                   11448      -0.755246335593244       0.643293287088363   -0.000157299406664862   -0.000172208592029494   -0.000157299406664862   -0.000172208592029494      -0.755246335593244       0.643293287088363
                 11448.2      -0.754140836280853       0.644528676768695   -0.000158863508853963   -0.000173324618490371   -0.000158863508853963   -0.000173324618490371      -0.754140836280853       0.644528676768695
                 11448.4      -0.753027747715446       0.645768198221962   -0.000160445501372008   -0.000174447766823106   -0.000160445501372008   -0.000174447766823106      -0.753027747715446       0.645768198221962
                 11448.6      -0.751906999440507       0.647011865502349   -0.000162045606693533    -0.00017557805443464   -0.000162045606693533    -0.00017557805443464      -0.751906999440507       0.647011865502349
                 11448.8      -0.750778520171215       0.648259692611631   -0.000163664050044696   -0.000176715497729378   -0.000163664050044696   -0.000176715497729378      -0.750778520171215       0.648259692611631
                   11449      -0.749642237782592       0.649511693495714   -0.000165301059429159   -0.000177860112068911   -0.000165301059429159   -0.000177860112068911      -0.749642237782592       0.649511693495714
                 11449.2      -0.748498079297521       0.650767882041017    -0.00016695686565366   -0.000179011911730461    -0.00016695686565366   -0.000179011911730461      -0.748498079297521       0.650767882041017
                 11449.4      -0.747345970874495       0.652028272070795   -0.000168631702353437   -0.000180170909864137   -0.000168631702353437   -0.000180170909864137      -0.747345970874495       0.652028272070795
                 11449.6      -0.746185837795217        0.65329287734131   -0.000170325806017308   -0.000181337118448874   -0.000170325806017308   -0.000181337118448874      -0.746185837795217        0.65329287734131
                 11449.8      -0.745017604451973       0.654561711537897   -0.000172039416012462   -0.000182510548247062   -0.000172039416012462   -0.000182510548247062      -0.745017604451973       0.654561711537897
                   11450      -0.743841194334758        0.65583478827096    -0.00017377277460898   -0.000183691208757865    -0.00017377277460898   -0.000183691208757865      -0.743841194334758        0.65583478827096
                 11450.2      -0.742656530018239        0.65711212107177    -0.00017552612700389   -0.000184879108169105    -0.00017552612700389   -0.000184879108169105      -0.742656530018239        0.65711212107177
                 11450.4      -0.741463533148466       0.658393723388198   -0.000177299721344864   -0.000186074253307739   -0.000177299721344864   -0.000186074253307739      -0.741463533148466       0.658393723388198
                 11450.6      -0.740262124429332       0.659679608580318   -0.000179093808753513   -0.000187276649588909   -0.000179093808753513   -0.000187276649588909      -0.740262124429332       0.659679608580318
                 11450.8      -0.739052223608856       0.660969789915855   -0.000180908643348111   -0.000188486300963433   -0.000180908643348111   -0.000188486300963433      -0.739052223608856       0.660969789915855
                   11451       -0.73783374946518       0.662264280565517   -0.000182744482265864   -0.000189703209863802   -0.000182744482265864   -0.000189703209863802       -0.73783374946518       0.662264280565517
                 11451.2      -0.736606619792383       0.663563093598162    -0.00018460158568453   -0.000190927377148539    -0.00018460158568453   -0.000190927377148539      -0.736606619792383       0.663563093598162
                 11451.4      -0.735370751385965       0.664866241975887    -0.00018648021684354   -0.000192158802045011    -0.00018648021684354   -0.000192158802045011      -0.735370751385965       0.664866241975887
                 11451.6      -0.734126060028158       0.666173738548911   -0.000188380642064338   -0.000193397482090498   -0.000188380642064338   -0.000193397482090498      -0.734126060028158       0.666173738548911
                 11451.8      -0.732872460472954        0.66748559605032   -0.000190303130770047   -0.000194643413071575   -0.000190303130770047   -0.000194643413071575      -0.732872460472954        0.66748559605032
                   11452      -0.731609866430863       0.668801827090678   -0.000192247955504372   -0.000195896588961734   -0.000192247955504372   -0.000195896588961734      -0.731609866430863       0.668801827090678
                 11452.2      -0.730338190553435       0.670122444152454   -0.000194215391949636   -0.000197157001857183   -0.000194215391949636   -0.000197157001857183      -0.730338190553435       0.670122444152454
                 11452.4      -0.729057344417469       0.671447459584315   -0.000196205718943981    -0.00019842464191082   -0.000196205718943981    -0.00019842464191082      -0.729057344417469       0.671447459584315
                 11452.6      -0.727767238508969       0.672776885595243    -0.00019821921849759   -0.000199699497264279    -0.00019821921849759   -0.000199699497264279      -0.727767238508969       0.672776885595243
                 11452.8      -0.726467782206833       0.674110734248451   -0.000200256175807864   -0.000200981553978008   -0.000200256175807864   -0.000200981553978008      -0.726467782206833       0.674110734248451
                   11453      -0.725158883766245       0.675449017455144   -0.000202316879273538   -0.000202270795959357   -0.000202316879273538   -0.000202270795959357      -0.725158883766245       0.675449017455144
                 11453.2      -0.723840450301737       0.676791746968127   -0.000204401620507678   -0.000203567204888622   -0.000204401620507678   -0.000203567204888622      -0.723840450301737       0.676791746968127
                 11453.4      -0.722512387770025       0.678138934375152   -0.000206510694349354   -0.000204870760142926   -0.000206510694349354   -0.000204870760142926      -0.722512387770025       0.678138934375152
                 11453.6      -0.721174600952471       0.679490591092146   -0.000208644398874085   -0.000206181438717982   -0.000208644398874085   -0.000206181438717982      -0.721174600952471       0.679490591092146
                 11453.8      -0.719826993437249       0.680846728356216   -0.000210803035402883   -0.000207499215147623   -0.000210803035402883   -0.000207499215147623      -0.719826993437249       0.680846728356216
                   11454      -0.718469467601247       0.682207357218402   -0.000212986908509722    -0.00020882406142099   -0.000212986908509722    -0.00020882406142099      -0.718469467601247       0.682207357218402
                 11454.2      -0.717101924591587       0.683572488536278    -0.00021519632602752   -0.000210155946897443    -0.00021519632602752   -0.000210155946897443      -0.717101924591587       0.683572488536278
                 11454.4       -0.71572426430682       0.684942132966323   -0.000217431599052457   -0.000211494838219054   -0.000217431599052457   -0.000211494838219054       -0.71572426430682       0.684942132966323
                 11454.6      -0.714336385377803       0.686316300956058   -0.000219693041946481   -0.000212840699220627   -0.000219693041946481   -0.000212840699220627      -0.714336385377803       0.686316300956058
                 11454.8       -0.71293818514822       0.687695002735954   -0.000221980972337958   -0.000214193490837186   -0.000221980972337958   -0.000214193490837186       -0.71293818514822       0.687695002735954
                   11455      -0.711529559654755       0.689078248311113   -0.000224295711120357   -0.000215553171008896   -0.000224295711120357   -0.000215553171008896      -0.711529559654755       0.689078248311113
                 11455.2      -0.710110403606932       0.690466047452663   -0.000226637582448754   -0.000216919694583269   -0.000226637582448754   -0.000216919694583269      -0.710110403606932       0.690466047452663
                 11455.4      -0.708680610366518       0.691858409688989   -0.000229006913734274   -0.000218293013214744   -0.000229006913734274   -0.000218293013214744      -0.708680610366518       0.691858409688989
                 11455.6      -0.707240071926631       0.693255344296612   -0.000231404035636032   -0.000219673075261381   -0.000231404035636032   -0.000219673075261381      -0.707240071926631       0.693255344296612
                 11455.8       -0.70578867889042       0.694656860290858   -0.000233829282050693    -0.00022105982567875   -0.000233829282050693    -0.00022105982567875       -0.70578867889042       0.694656860290858
                   11456      -0.704326320449369        0.69606296641624   -0.000236282990099391   -0.000222453205910873   -0.000236282990099391   -0.000222453205910873      -0.704326320449369        0.69606296641624
                 11456.2      -0.702852884361214       0.697473671136531   -0.000238765500111857   -0.000223853153778144   -0.000238765500111857   -0.000223853153778144      -0.702852884361214       0.697473671136531
                 11456.4      -0.701368256927429       0.698888982624596    -0.00024127715560771   -0.000225259603362214    -0.00024127715560771   -0.000225259603362214      -0.701368256927429       0.698888982624596
                 11456.6      -0.699872322970324       0.700308908751873   -0.000243818303274609   -0.000226672484887682   -0.000243818303274609   -0.000226672484887682      -0.699872322970324       0.700308908751873
                 11456.8      -0.698364965809672       0.701733457077607   -0.000246389292943269   -0.000228091724600616   -0.000246389292943269   -0.000228091724600616      -0.698364965809672       0.701733457077607
                   11457      -0.696846067239007       0.703162634837669   -0.000248990477558897    -0.00022951724464367   -0.000248990477558897    -0.00022951724464367      -0.696846067239007       0.703162634837669
                 11457.2      -0.695315507501349       0.704596448933151   -0.000251622213149242    -0.00023094896292793   -0.000251622213149242    -0.00023094896292793      -0.695315507501349       0.704596448933151
                 11457.4       -0.69377316526457       0.706034905918566   -0.000254284858788751   -0.000232386793001239   -0.000254284858788751   -0.000232386793001239       -0.69377316526457       0.706034905918566
                 11457.6       -0.69221891759627       0.707478011989706   -0.000256978776558764   -0.000233830643912977   -0.000256978776558764   -0.000233830643912977       -0.69221891759627       0.707478011989706
                 11457.8      -0.690652639938169       0.708925772971164   -0.000259704331503578    -0.00023528042007525   -0.000259704331503578    -0.00023528042007525      -0.690652639938169       0.708925772971164
                   11458      -0.689074206080073       0.710378194303433   -0.000262461891581998   -0.000236736021120313   -0.000262461891581998   -0.000236736021120313      -0.689074206080073       0.710378194303433
                 11458.2      -0.687483488133274       0.711835281029697   -0.000265251827614406    -0.00023819734175427   -0.000265251827614406    -0.00023819734175427      -0.687483488133274       0.711835281029697
                 11458.4      -0.685880356503506       0.713297037782169   -0.000268074513224852   -0.000239664271606845   -0.000268074513224852   -0.000239664271606845      -0.685880356503506       0.713297037782169
                 11458.6      -0.684264679863336       0.714763468768089   -0.000270930324778141   -0.000241136695077239   -0.000270930324778141   -0.000241136695077239      -0.684264679863336       0.714763468768089
                 11458.8      -0.682636325124145       0.716234577755182   -0.000273819641311344   -0.000242614491175839   -0.000273819641311344   -0.000242614491175839      -0.682636325124145       0.716234577755182
                   11459      -0.680995157407392       0.717710368056866   -0.000276742844459967    -0.00024409753336194   -0.000276742844459967    -0.00024409753336194      -0.680995157407392       0.717710368056866
                 11459.2      -0.679341040015537       0.719190842516836   -0.000279700318377869   -0.000245585689377078   -0.000279700318377869   -0.000245585689377078      -0.679341040015537       0.719190842516836
                 11459.4      -0.677673834402234       0.720676003493319   -0.000282692449651204   -0.000247078821074173   -0.000282692449651204   -0.000247078821074173      -0.677673834402234       0.720676003493319
                 11459.6       -0.67599340014205       0.722165852842811   -0.000285719627205705   -0.000248576784242204   -0.000285719627205705   -0.000248576784242204       -0.67599340014205       0.722165852842811
                 11459.8      -0.674299594899601       0.723660391903297   -0.000288782242207075   -0.000250079428426385   -0.000288782242207075   -0.000250079428426385      -0.674299594899601       0.723660391903297
                   11460      -0.672592274398046       0.725159621477029   -0.000291880687954264   -0.000251586596743779   -0.000291880687954264   -0.000251586596743779      -0.672592274398046       0.725159621477029
                 11460.2      -0.670871292386999        0.72666354181275   -0.000295015359765132   -0.000253098125694226   -0.000295015359765132   -0.000253098125694226      -0.670871292386999        0.72666354181275
                 11460.4      -0.669136500609833       0.728172152587396   -0.000298186654854178   -0.000254613844966497   -0.000298186654854178   -0.000254613844966497      -0.669136500609833       0.728172152587396
                 11460.6      -0.667387748770338       0.729685452887231    -0.00030139497220193   -0.000256133577239573    -0.00030139497220193   -0.000256133577239573      -0.667387748770338       0.729685452887231
                 11460.8      -0.665624884498713       0.731203441188448    -0.00030464071241566   -0.000257657137979014    -0.00030464071241566   -0.000257657137979014      -0.665624884498713       0.731203441188448
                   11461      -0.663847753316933       0.732726115337148   -0.000307924277580867   -0.000259184335228242   -0.000307924277580867   -0.000259184335228242      -0.663847753316933       0.732726115337148
                 11461.2      -0.662056198603389       0.734253472528744   -0.000311246071103232   -0.000260714969394737   -0.000311246071103232   -0.000260714969394737      -0.662056198603389       0.734253472528744
                 11461.4      -0.660250061556894       0.735785509286718   -0.000314606497540424   -0.000262248833030969   -0.000314606497540424   -0.000262248833030969      -0.660250061556894       0.735785509286718
                 11461.6      -0.658429181159911       0.737322221440763   -0.000318005962423441   -0.000263785710610076   -0.000318005962423441   -0.000263785710610076      -0.658429181159911       0.737322221440763
                 11461.8      -0.656593394141141       0.738863604104217   -0.000321444872066767    -0.00026532537829609   -0.000321444872066767    -0.00026532537829609      -0.656593394141141       0.738863604104217
                   11462      -0.654742534937282       0.740409651650865   -0.000324923633367058   -0.000266867603708753   -0.000324923633367058   -0.000266867603708753      -0.654742534937282       0.740409651650865
                 11462.2      -0.652876435654127       0.741960357690968   -0.000328442653589519   -0.000268412145682698   -0.000328442653589519   -0.000268412145682698      -0.652876435654127       0.741960357690968
                 11462.4      -0.650994926026773       0.743515715046654   -0.000332002340141747    -0.00026995875402109   -0.000332002340141747    -0.00026995875402109      -0.650994926026773       0.743515715046654
                 11462.6      -0.649097833379171       0.745075715726441   -0.000335603100333967    -0.00027150716924344   -0.000335603100333967    -0.00027150716924344      -0.649097833379171       0.745075715726441
                 11462.8      -0.647184982582729         0.7466403508991   -0.000339245341125557   -0.000273057122327746   -0.000339245341125557   -0.000273057122327746      -0.647184982582729         0.7466403508991
                   11463       -0.64525619601423       0.748209610866595   -0.000342929468856637   -0.000274608334446655   -0.000342929468856637   -0.000274608334446655       -0.64525619601423       0.748209610866595
                 11463.2       -0.64331129351276       0.749783485036313   -0.000346655888964588   -0.000276160516697823   -0.000346655888964588   -0.000276160516697823       -0.64331129351276       0.749783485036313
                 11463.4      -0.641350092335904       0.751361961892325   -0.000350425005684228   -0.000277713369828173   -0.000350425005684228   -0.000277713369828173      -0.641350092335904       0.751361961892325
                 11463.6      -0.639372407114994       0.752945028965818   -0.000354237221731286   -0.000279266583952168   -0.000354237221731286   -0.000279266583952168      -0.639372407114994       0.752945028965818
                 11463.8      -0.637378049809364       0.754532672804678   -0.000358092937968378   -0.000280819838264049   -0.000358092937968378   -0.000280819838264049      -0.637378049809364       0.754532672804678
                   11464      -0.635366829659912        0.75612487894194   -0.000361992553052082   -0.000282372800743756   -0.000361992553052082   -0.000282372800743756      -0.635366829659912        0.75612487894194
                 11464.2      -0.633338553141484       0.757721631863454   -0.000365936463061109   -0.000283925127856855   -0.000365936463061109   -0.000283925127856855      -0.633338553141484       0.757721631863454
                 11464.4      -0.631293023914392       0.759322914974456   -0.000369925061104021   -0.000285476464248173   -0.000369925061104021   -0.000285476464248173      -0.631293023914392       0.759322914974456
                 11464.6      -0.629230042774937       0.760928710565096   -0.000373958736905739   -0.000287026442429205   -0.000373958736905739   -0.000287026442429205      -0.629230042774937       0.760928710565096
                 11464.8      -0.627149407604942       0.762538999774878   -0.000378037876371812   -0.000288574682459269   -0.000378037876371812   -0.000288574682459269      -0.627149407604942       0.762538999774878
                   11465      -0.625050913320155       0.764153762556056   -0.000382162861129613   -0.000290120791620483   -0.000382162861129613   -0.000290120791620483      -0.625050913320155       0.764153762556056
                 11465.2      -0.622934351817733       0.765772977635764   -0.000386334068044916   -0.000291664364086404   -0.000386334068044916   -0.000291664364086404      -0.622934351817733       0.765772977635764
                 11465.4      -0.620799511922483       0.767396622477085     -0.0003905518687133   -0.000293204980584565     -0.0003905518687133   -0.000293204980584565      -0.620799511922483       0.767396622477085
                 11465.6      -0.618646179332179       0.769024673238741   -0.000394816628924533   -0.000294742208052711   -0.000394816628924533   -0.000294742208052711      -0.618646179332179       0.769024673238741
                 11465.8      -0.616474136561489       0.770657104733711   -0.000399128708099522   -0.000296275599289074   -0.000399128708099522   -0.000296275599289074      -0.616474136561489       0.770657104733711
                   11466      -0.614283162885067       0.772293890386277   -0.000403488458697398   -0.000297804692596366   -0.000403488458697398   -0.000297804692596366      -0.614283162885067       0.772293890386277
                 11466.2      -0.612073034279126       0.773935002187959   -0.000407896225592668    -0.00029932901142001   -0.000407896225592668    -0.00029932901142001      -0.612073034279126       0.773935002187959
                 11466.4      -0.609843523362042       0.775580410651862   -0.000412352345419875   -0.000300848063980334   -0.000412352345419875   -0.000300848063980334      -0.609843523362042       0.775580410651862
                 11466.6      -0.607594399333591       0.777230084765655   -0.000416857145884985   -0.000302361342899082   -0.000416857145884985   -0.000302361342899082      -0.607594399333591       0.777230084765655
                 11466.8      -0.605325427912938       0.778883991943019   -0.000421410945041661   -0.000303868324820298   -0.000421410945041661   -0.000303868324820298      -0.605325427912938       0.778883991943019
                   11467      -0.603036371275323       0.780542097973538   -0.000426014050530848   -0.000305368470025763   -0.000426014050530848   -0.000305368470025763      -0.603036371275323       0.780542097973538