! This file was generated by CST Filter Designer 3D
! _________________________________________________
! Date:                         06.11.2025 15:50:30

# MHZ S RI R 50
!              Frequency                 Re(S11)                 Im(S11)                 Re(S21)                 Im(S21)                 Re(S12)                 Im(S12)                 Re(S22)                 Im(S22)
                   11440      -0.794334656679384       0.596601437940391   -0.000106958567128718   -0.000133026437313783   -0.000106958567128718   -0.000133026437313783      -0.794334656679384       0.596601437940391
                 11440.2      -0.793483614932513       0.597684099406126   -0.000107962167917514   -0.000133882403267928   -0.000107962167917514   -0.000133882403267928      -0.793483614932513       0.597684099406126
                 11440.4       -0.79262722916201       0.598770331481731    -0.00010897676351423   -0.000134744373487216    -0.00010897676351423   -0.000134744373487216       -0.79262722916201       0.598770331481731
                 11440.6        -0.7917654540264       0.599860148528196   -0.000110002488788636   -0.000135612383847459   -0.000110002488788636   -0.000135612383847459        -0.7917654540264       0.599860148528196
                 11440.8      -0.790898243697126       0.600953564935874   -0.000111039480376417   -0.000136486470149182   -0.000111039480376417   -0.000136486470149182      -0.790898243697126       0.600953564935874
                   11441      -0.790025551852189       0.602050595123507   -0.000112087876701968   -0.000137366668106284   -0.000112087876701968   -0.000137366668106284      -0.790025551852189       0.602050595123507
                 11441.2      -0.789147331669684       0.603151253537221   -0.000113147818001411   -0.000138253013334293   -0.000113147818001411   -0.000138253013334293      -0.789147331669684       0.603151253537221
                 11441.4      -0.788263535821261       0.604255554649455   -0.000114219446345828   -0.000139145541338203   -0.000114219446345828   -0.000139145541338203      -0.788263535821261       0.604255554649455
                 11441.6      -0.787374116465483       0.605363512957854   -0.000115302905664696   -0.000140044287499888   -0.000115302905664696   -0.000140044287499888      -0.787374116465483       0.605363512957854
                 11441.8      -0.786479025241029       0.606475142984194   -0.000116398341769628   -0.000140949287065136   -0.000116398341769628   -0.000140949287065136      -0.786479025241029       0.606475142984194
                   11442      -0.785578213259902       0.607590459273124   -0.000117505902378193   -0.000141860575130129   -0.000117505902378193   -0.000141860575130129      -0.785578213259902       0.607590459273124
                 11442.2      -0.784671631100394       0.608709476391044   -0.000118625737138118    -0.00014277818662761   -0.000118625737138118    -0.00014277818662761      -0.784671631100394       0.608709476391044
                 11442.4      -0.783759228800067       0.609832208924788   -0.000119757997651559   -0.000143702156312442   -0.000119757997651559   -0.000143702156312442      -0.783759228800067       0.609832208924788
                 11442.6      -0.782840955848532       0.610958671480371   -0.000120902837499692   -0.000144632518746788   -0.000120902837499692   -0.000144632518746788      -0.782840955848532       0.610958671480371
                 11442.8      -0.781916761180171       0.612088878681633   -0.000122060412267455   -0.000145569308284728   -0.000122060412267455   -0.000145569308284728      -0.781916761180171       0.612088878681633
                   11443      -0.780986593166711       0.613222845168876   -0.000123230879568523   -0.000146512559056403   -0.000123230879568523   -0.000146512559056403      -0.780986593166711       0.613222845168876
                 11443.2      -0.780050399609704       0.614360585597425   -0.000124414399070471   -0.000147462304951607   -0.000124414399070471   -0.000147462304951607      -0.780050399609704       0.614360585597425
                 11443.4       -0.77910812773288       0.615502114636153   -0.000125611132520133    -0.00014841857960284   -0.000125611132520133    -0.00014841857960284       -0.77910812773288       0.615502114636153
                 11443.6      -0.778159724174383       0.616647446965962   -0.000126821243769168   -0.000149381416367809   -0.000126821243769168   -0.000149381416367809      -0.778159724174383       0.616647446965962
                 11443.8      -0.777205134978855       0.617796597278234   -0.000128044898799828   -0.000150350848311377   -0.000128044898799828   -0.000150350848311377      -0.777205134978855       0.617796597278234
                   11444      -0.776244305589454       0.618949580273174   -0.000129282265750859   -0.000151326908186858   -0.000129282265750859   -0.000151326908186858      -0.776244305589454       0.618949580273174
                 11444.2      -0.775277180839685       0.620106410658164   -0.000130533514943637   -0.000152309628416778   -0.000130533514943637   -0.000152309628416778      -0.775277180839685       0.620106410658164
                 11444.4      -0.774303704945135       0.621267103146019   -0.000131798818908435   -0.000153299041072951   -0.000131798818908435   -0.000153299041072951      -0.774303704945135       0.621267103146019
                 11444.6      -0.773323821495065       0.622431672453219   -0.000133078352410886   -0.000154295177855956   -0.000133078352410886   -0.000154295177855956      -0.773323821495065       0.622431672453219
                 11444.8      -0.772337473443868       0.623600133298052   -0.000134372292478574   -0.000155298070073919   -0.000134372292478574   -0.000155298070073919      -0.772337473443868       0.623600133298052
                   11445      -0.771344603102397       0.624772500398725   -0.000135680818427796    -0.00015630774862063   -0.000135680818427796    -0.00015630774862063      -0.771344603102397       0.624772500398725
                 11445.2      -0.770345152129122       0.625948788471423   -0.000137004111890481   -0.000157324243952974   -0.000137004111890481   -0.000157324243952974      -0.770345152129122       0.625948788471423
                 11445.4      -0.769339061521211       0.627129012228249   -0.000138342356841175   -0.000158347586067592   -0.000138342356841175   -0.000158347586067592      -0.769339061521211       0.627129012228249
                 11445.6      -0.768326271605393       0.628313186375168   -0.000139695739624234   -0.000159377804476853   -0.000139695739624234   -0.000159377804476853      -0.768326271605393       0.628313186375168
                 11445.8        -0.7673067220287       0.629501325609873   -0.000141064448981102   -0.000160414928184065   -0.000141064448981102   -0.000160414928184065        -0.7673067220287       0.629501325609873
                   11446      -0.766280351749079       0.630693444619541    -0.00014244867607766   -0.000161458985657847    -0.00014244867607766   -0.000161458985657847      -0.766280351749079       0.630693444619541
                 11446.2      -0.765247099025842       0.631889558078549   -0.000143848614531683   -0.000162510004805738   -0.000143848614531683   -0.000162510004805738      -0.765247099025842       0.631889558078549
                 11446.4      -0.764206901409921       0.633089680646149   -0.000145264460440433   -0.000163568012946992   -0.000145264460440433   -0.000163568012946992      -0.764206901409921       0.633089680646149
                 11446.6      -0.763159695734031          0.634293826964   -0.000146696412408213   -0.000164633036784461   -0.000146696412408213   -0.000164633036784461      -0.763159695734031          0.634293826964
                 11446.8      -0.762105418102607       0.635502011653701    -0.00014814467157408   -0.000165705102375668    -0.00014814467157408   -0.000165705102375668      -0.762105418102607       0.635502011653701
                   11447      -0.761044003881627       0.636714249314178    -0.00014960944163952   -0.000166784235102923    -0.00014960944163952   -0.000166784235102923      -0.761044003881627       0.636714249314178
                 11447.2       -0.75997538768821       0.637930554519067   -0.000151090928896215   -0.000167870459642573   -0.000151090928896215   -0.000167870459642573       -0.75997538768821       0.637930554519067
                 11447.4       -0.75889950338011       0.639150941813936   -0.000152589342253744   -0.000168963799933224   -0.000152589342253744   -0.000168963799933224       -0.75889950338011       0.639150941813936
                 11447.6      -0.757816284044998        0.64037542571346    -0.00015410489326731   -0.000170064279143027    -0.00015410489326731   -0.000170064279143027      -0.757816284044998        0.64037542571346
                 11447.8      -0.756725661989528       0.641604020698564   -0.000155637796165505   -0.000171171919635996   -0.000155637796165505   -0.000171171919635996      -0.756725661989528       0.641604020698564
                   11448      -0.755627568728323        0.64283674121335    -0.00015718826787787    -0.00017228674293718    -0.00015718826787787    -0.00017228674293718      -0.755627568728323        0.64283674121335
                 11448.2      -0.754521934972667       0.644073601662063   -0.000158756528062562   -0.000173408769696885   -0.000158756528062562   -0.000173408769696885      -0.754521934972667       0.644073601662063
                 11448.4      -0.753408690619089       0.645314616405876   -0.000160342799133802   -0.000174538019653722   -0.000160342799133802   -0.000174538019653722      -0.753408690619089       0.645314616405876
                 11448.6      -0.752287764737686       0.646559799759648   -0.000161947306289318   -0.000175674511596596   -0.000161947306289318   -0.000175674511596596      -0.752287764737686       0.646559799759648
                 11448.8       -0.75115908556033       0.647809165988497    -0.00016357027753754   -0.000176818263325459    -0.00016357027753754   -0.000176818263325459       -0.75115908556033       0.647809165988497
                   11449      -0.750022580468597       0.649062729304365   -0.000165211943724746   -0.000177969291610951   -0.000165211943724746   -0.000177969291610951      -0.750022580468597       0.649062729304365
                 11449.2      -0.748878175981551       0.650320503862399   -0.000166872538561932   -0.000179127612152765   -0.000166872538561932   -0.000179127612152765      -0.748878175981551       0.650320503862399
                 11449.4      -0.747725797743275        0.65158250375729   -0.000168552298651549   -0.000180293239536797   -0.000168552298651549   -0.000180293239536797      -0.747725797743275        0.65158250375729
                 11449.6      -0.746565370510224       0.652848743019456   -0.000170251463513928   -0.000181466187190975   -0.000170251463513928   -0.000181466187190975      -0.746565370510224       0.652848743019456
                 11449.8      -0.745396818138361       0.654119235611111   -0.000171970275613449   -0.000182646467339763   -0.000171970275613449   -0.000182646467339763      -0.745396818138361       0.654119235611111
                   11450      -0.744220063570029       0.655393995422269   -0.000173708980384458    -0.00018383409095734   -0.000173708980384458    -0.00018383409095734      -0.744220063570029       0.655393995422269
                 11450.2      -0.743035028820668       0.656673036266556   -0.000175467826256748   -0.000185029067719323   -0.000175467826256748   -0.000185029067719323      -0.743035028820668       0.656673036266556
                 11450.4      -0.741841634965257       0.657956371876941   -0.000177247064680723   -0.000186231405953085   -0.000177247064680723   -0.000186231405953085      -0.741841634965257       0.657956371876941
                 11450.6      -0.740639802124512       0.659244015901346   -0.000179046950152167   -0.000187441112586606   -0.000179046950152167   -0.000187441112586606      -0.740639802124512       0.659244015901346
                 11450.8      -0.739429449450894       0.660535981898098   -0.000180867740236493   -0.000188658193095772   -0.000180867740236493   -0.000188658193095772      -0.739429449450894       0.660535981898098
                   11451      -0.738210495114325       0.661832283331264   -0.000182709695592552   -0.000189882651450139   -0.000182709695592552   -0.000189882651450139      -0.738210495114325       0.661832283331264
                 11451.2      -0.736982856287718       0.663132933565816   -0.000184573079995831   -0.000191114490057062   -0.000184573079995831   -0.000191114490057062      -0.736982856287718       0.663132933565816
                 11451.4      -0.735746449132162       0.664437945862724   -0.000186458160361181   -0.000192353709704242   -0.000186458160361181   -0.000192353709704242      -0.735746449132162       0.664437945862724
                 11451.6      -0.734501188781937       0.665747333373832   -0.000188365206764794   -0.000193600309500517   -0.000188365206764794   -0.000193600309500517      -0.734501188781937       0.665747333373832
                 11451.8      -0.733246989329226       0.667061109136604    -0.00019029449246554   -0.000194854286814943    -0.00019029449246554   -0.000194854286814943      -0.733246989329226       0.667061109136604
                   11452      -0.731983763808566       0.668379286068728   -0.000192246293925568   -0.000196115637214095   -0.000192246293925568   -0.000196115637214095      -0.731983763808566       0.668379286068728
                 11452.2      -0.730711424181037       0.669701876962534    -0.00019422089083008   -0.000197384354397516    -0.00019422089083008   -0.000197384354397516      -0.730711424181037       0.669701876962534
                 11452.4      -0.729429881318141       0.671028894479286   -0.000196218566106296   -0.000198660430131323   -0.000196218566106296   -0.000198660430131323      -0.729429881318141       0.671028894479286
                 11452.6       -0.72813904498542       0.672360351143281    -0.00019823960594148    -0.00019994385417986    -0.00019823960594148    -0.00019994385417986       -0.72813904498542       0.672360351143281
                 11452.8      -0.726838823825795       0.673696259335754   -0.000200284299799945   -0.000201234614235349   -0.000200284299799945   -0.000201234614235349      -0.726838823825795       0.673696259335754
                   11453      -0.725529125342595       0.675036631288632   -0.000202352940439041   -0.000202532695845533   -0.000202352940439041   -0.000202532695845533      -0.725529125342595       0.675036631288632
                 11453.2       -0.72420985588226       0.676381479078113   -0.000204445823924053   -0.000203838082339243   -0.000204445823924053   -0.000203838082339243       -0.72420985588226       0.676381479078113
                 11453.4      -0.722880920616792       0.677730814618009   -0.000206563249641809   -0.000205150754749767   -0.000206563249641809   -0.000205150754749767      -0.722880920616792       0.677730814618009
                 11453.6      -0.721542223525841       0.679084649652938     -0.0002087055203131   -0.000206470691736077     -0.0002087055203131   -0.000206470691736077      -0.721542223525841       0.679084649652938
                 11453.8      -0.720193667378464       0.680442995751318   -0.000210872942003728   -0.000207797869501788   -0.000210872942003728   -0.000207797869501788      -0.720193667378464       0.680442995751318
                   11454      -0.718835153714635       0.681805864298088   -0.000213065824134015   -0.000209132261711741   -0.000213065824134015   -0.000209132261711741      -0.718835153714635       0.681805864298088
                 11454.2      -0.717466582826336       0.683173266487279   -0.000215284479486871   -0.000210473839406273   -0.000215284479486871   -0.000210473839406273      -0.717466582826336       0.683173266487279
                 11454.4      -0.716087853738337       0.684545213314355   -0.000217529224214218   -0.000211822570913033   -0.000217529224214218   -0.000211822570913033      -0.716087853738337       0.684545213314355
                 11454.6      -0.714698864188625       0.685921715568318    -0.00021980037784165   -0.000213178421756286    -0.00021980037784165   -0.000213178421756286      -0.714698864188625       0.685921715568318
                 11454.8      -0.713299510608489       0.687302783823571   -0.000222098263271271   -0.000214541354563649   -0.000222098263271271   -0.000214541354563649      -0.713299510608489       0.687302783823571
                   11455      -0.711889688102221       0.688688428431566   -0.000224423206782599   -0.000215911328970211   -0.000224423206782599   -0.000215911328970211      -0.711889688102221       0.688688428431566
                 11455.2      -0.710469290426493       0.690078659512148   -0.000226775538031334   -0.000217288301519902   -0.000226775538031334   -0.000217288301519902      -0.710469290426493       0.690078659512148
                 11455.4      -0.709038209969271        0.69147348694474   -0.000229155590046092   -0.000218672225564186   -0.000229155590046092   -0.000218672225564186      -0.709038209969271        0.69147348694474
                 11455.6      -0.707596337728434       0.692872920359171   -0.000231563699222684   -0.000220063051157825   -0.000231563699222684   -0.000220063051157825      -0.707596337728434       0.692872920359171
                 11455.8      -0.706143563289936       0.694276969126285    -0.00023400020531604   -0.000221460724951785    -0.00023400020531604   -0.000221460724951785      -0.706143563289936       0.694276969126285
                   11456      -0.704679774805592       0.695685642348266   -0.000236465451429537   -0.000222865190083149   -0.000236465451429537   -0.000222865190083149      -0.704679774805592       0.695685642348266
                 11456.2      -0.703204858970463       0.697098948848647   -0.000238959784001571   -0.000224276386061951   -0.000238959784001571   -0.000224276386061951      -0.703204858970463       0.697098948848647
                 11456.4      -0.701718700999787       0.698516897162065   -0.000241483552789322   -0.000225694248654923   -0.000241483552789322   -0.000225694248654923      -0.701718700999787       0.698516897162065
                 11456.6      -0.700221184605516       0.699939495523678   -0.000244037110849422   -0.000227118709765988   -0.000244037110849422   -0.000227118709765988      -0.700221184605516       0.699939495523678
                 11456.8      -0.698712191972364       0.701366751858315   -0.000246620814515526   -0.000228549697313527   -0.000246620814515526   -0.000228549697313527      -0.698712191972364       0.701366751858315
                   11457       -0.69719160373351       0.702798673769207   -0.000249235023372324   -0.000229987135104175   -0.000249235023372324   -0.000229987135104175       -0.69719160373351       0.702798673769207
                 11457.2      -0.695659298945718       0.704235268526499   -0.000251880100226217   -0.000231430942703291   -0.000251880100226217   -0.000231430942703291      -0.695659298945718       0.704235268526499
                 11457.4      -0.694115155064072       0.705676543055347   -0.000254556411072127   -0.000232881035301827   -0.000254556411072127   -0.000232881035301827      -0.694115155064072       0.705676543055347
                 11457.6      -0.692559047916216       0.707122503923678   -0.000257264325056377   -0.000234337323579596   -0.000257264325056377   -0.000234337323579596      -0.692559047916216       0.707122503923678
                 11457.8      -0.690990851676084       0.708573157329605   -0.000260004214435473   -0.000235799713564869   -0.000260004214435473   -0.000235799713564869      -0.690990851676084       0.708573157329605
                   11458      -0.689410438837192       0.710028509088406   -0.000262776454530412   -0.000237268106490129   -0.000262776454530412   -0.000237268106490129      -0.689410438837192       0.710028509088406
                 11458.2      -0.687817680185341       0.711488564619198   -0.000265581423676533   -0.000238742398644032   -0.000265581423676533   -0.000238742398644032      -0.687817680185341       0.711488564619198
                 11458.4      -0.686212444770867       0.712953328931143   -0.000268419503168416   -0.000240222481219352   -0.000268419503168416   -0.000240222481219352      -0.686212444770867       0.712953328931143
                 11458.6      -0.684594599880296       0.714422806609308   -0.000271291077199817   -0.000241708240156935   -0.000271291077199817   -0.000241708240156935      -0.684594599880296       0.714422806609308
                 11458.8      -0.682964011007574       0.715897001799984   -0.000274196532798041   -0.000243199555985402   -0.000274196532798041   -0.000243199555985402      -0.682964011007574       0.715897001799984
                   11459      -0.681320541824564       0.717375918195737   -0.000277136259753011   -0.000244696303656799   -0.000277136259753011   -0.000244696303656799      -0.681320541824564       0.717375918195737
                 11459.2      -0.679664054151175       0.718859559019824     -0.0002801106505401   -0.000246198352377735     -0.0002801106505401   -0.000246198352377735      -0.679664054151175       0.718859559019824
                 11459.4      -0.677994407924745       0.720347927010293    -0.00028312010023702   -0.000247705565436263    -0.00028312010023702   -0.000247705565436263      -0.677994407924745       0.720347927010293
                 11459.6      -0.676311461168924       0.721841024403521    -0.00028616500643406   -0.000249217800024168    -0.00028616500643406   -0.000249217800024168      -0.676311461168924       0.721841024403521
                 11459.8      -0.674615069961952        0.72333885291726   -0.000289245769137466   -0.000250734907054657   -0.000289245769137466   -0.000250734907054657      -0.674615069961952        0.72333885291726
                   11460      -0.672905088404275       0.724841413733201   -0.000292362790665705   -0.000252256730975388   -0.000292362790665705   -0.000252256730975388      -0.672905088404275       0.724841413733201
                 11460.2      -0.671181368585557       0.726348707478996   -0.000295516475538142   -0.000253783109576689   -0.000295516475538142   -0.000253783109576689      -0.671181368585557       0.726348707478996
                 11460.4      -0.669443760551048       0.727860734209734   -0.000298707230355791    -0.00025531387379489   -0.000298707230355791    -0.00025531387379489      -0.669443760551048       0.727860734209734
                 11460.6      -0.667692112267295       0.729377493388835   -0.000301935463673726   -0.000256848847510658   -0.000301935463673726   -0.000256848847510658      -0.667692112267295       0.729377493388835
                 11460.8      -0.665926269587153       0.730898983868415   -0.000305201585864837   -0.000258387847342297   -0.000305201585864837   -0.000258387847342297      -0.665926269587153       0.730898983868415
                   11461      -0.664146076214142       0.732425203868992   -0.000308506008974337   -0.000259930682433831   -0.000308506008974337   -0.000259930682433831      -0.664146076214142       0.732425203868992
                 11461.2      -0.662351373666062        0.73395615095863   -0.000311849146564756   -0.000261477154237862   -0.000311849146564756   -0.000261477154237862      -0.662351373666062        0.73395615095863
                 11461.4      -0.660542001237929       0.735491822031392    -0.00031523141355076   -0.000263027056293032    -0.00031523141355076   -0.000263027056293032      -0.660542001237929       0.735491822031392
                 11461.6       -0.65871779596412       0.737032213285191   -0.000318653226023514   -0.000264580173996079   -0.000318653226023514   -0.000264580173996079       -0.65871779596412       0.737032213285191
                 11461.8      -0.656878592579828         0.7385773201989   -0.000322115001063828    -0.00026613628436829   -0.000322115001063828    -0.00026613628436829      -0.656878592579828         0.7385773201989
                   11462      -0.655024223481683       0.740127137508821   -0.000325617156543819   -0.000267695155816397   -0.000325617156543819   -0.000267695155816397      -0.655024223481683       0.740127137508821
                 11462.2      -0.653154518687661       0.741681659184359   -0.000329160110916233   -0.000269256547887665   -0.000329160110916233   -0.000269256547887665      -0.653154518687661       0.741681659184359
                 11462.4      -0.651269305796069       0.743240878403045   -0.000332744282991207   -0.000270820211019289   -0.000332744282991207   -0.000270820211019289      -0.651269305796069       0.743240878403045
                 11462.6      -0.649368409943856       0.744804787524671   -0.000336370091699378   -0.000272385886281774   -0.000336370091699378   -0.000272385886281774      -0.649368409943856       0.744804787524671
                 11462.8      -0.647451653763927       0.746373378064744   -0.000340037955841233   -0.000273953305116481   -0.000340037955841233   -0.000273953305116481      -0.647451653763927       0.746373378064744
                   11463      -0.645518857341737       0.747946640666997   -0.000343748293821479   -0.000275522189066998   -0.000343748293821479   -0.000275522189066998      -0.645518857341737       0.747946640666997
                 11463.2      -0.643569838170867       0.749524565075172   -0.000347501523368277   -0.000277092249504526   -0.000347501523368277   -0.000277092249504526      -0.643569838170867       0.749524565075172
                 11463.4      -0.641604411107819       0.751107140103806   -0.000351298061236062   -0.000278663187346961   -0.000351298061236062   -0.000278663187346961      -0.641604411107819       0.751107140103806
                 11463.6      -0.639622388325832        0.75269435360817   -0.000355138322891578   -0.000280234692771791   -0.000355138322891578   -0.000280234692771791      -0.639622388325832        0.75269435360817
                 11463.8      -0.637623579267663       0.754286192453329   -0.000359022722182341   -0.000281806444922751   -0.000359022722182341   -0.000281806444922751      -0.637623579267663       0.754286192453329
                   11464      -0.635607790597628       0.755882642482053   -0.000362951670986093   -0.000283378111609939   -0.000362951670986093   -0.000283378111609939      -0.635607790597628       0.755882642482053
                 11464.2      -0.633574826152432       0.757483688481905   -0.000366925578841234   -0.000284949349003715   -0.000366925578841234   -0.000284949349003715      -0.633574826152432       0.757483688481905
                 11464.4      -0.631524486891081       0.759089314151216   -0.000370944852556704   -0.000286519801322085   -0.000370944852556704   -0.000286519801322085      -0.631524486891081       0.759089314151216
                 11464.6      -0.629456570843753       0.760699502063985   -0.000375009895800496   -0.000288089100511611   -0.000375009895800496   -0.000288089100511611      -0.629456570843753       0.760699502063985
                 11464.8      -0.627370873059641       0.762314233633655   -0.000379121108665798   -0.000289656865921825   -0.000379121108665798   -0.000289656865921825      -0.627370873059641       0.762314233633655
                   11465      -0.625267185553608       0.763933489075823   -0.000383278887213899   -0.000291222703973221   -0.000383278887213899   -0.000291222703973221      -0.625267185553608       0.763933489075823
                 11465.2      -0.623145297251878       0.765557247369646   -0.000387483622992293   -0.000292786207818635   -0.000387483622992293   -0.000292786207818635      -0.623145297251878       0.765557247369646
                 11465.4      -0.621004993936433       0.767185486218144   -0.000391735702527429   -0.000294346956998273   -0.000391735702527429   -0.000294346956998273      -0.621004993936433       0.767185486218144
                 11465.6      -0.618846058188433       0.768818182007103   -0.000396035506790218   -0.000295904517088137   -0.000396035506790218   -0.000295904517088137      -0.618846058188433       0.768818182007103
                 11465.8      -0.616668269330185       0.770455309762851   -0.000400383410633891   -0.000297458439342243   -0.000400383410633891   -0.000297458439342243      -0.616668269330185       0.770455309762851
                   11466      -0.614471403366235       0.772096843108435   -0.000404779782201733   -0.000299008260328223   -0.000404779782201733   -0.000299008260328223      -0.614471403366235       0.772096843108435
                 11466.2       -0.61225523292287       0.773742754218639   -0.000409224982304627   -0.000300553501556908   -0.000409224982304627   -0.000300553501556908       -0.61225523292287       0.773742754218639
                 11466.4      -0.610019527186597       0.775393013773372   -0.000413719363765805   -0.000302093669105529   -0.000413719363765805   -0.000302093669105529      -0.610019527186597       0.775393013773372
                 11466.6      -0.607764051841192        0.77704759090964   -0.000418263270732018    -0.00030362825323495   -0.000418263270732018    -0.00030362825323495      -0.607764051841192        0.77704759090964
                 11466.8       -0.60548856900344        0.77870645317194   -0.000422857037949261   -0.000305156728000932   -0.000422857037949261   -0.000305156728000932       -0.60548856900344        0.77870645317194
                   11467      -0.603192837157507       0.780369566461051   -0.000427500990001424   -0.000306678550859624   -0.000427500990001424   -0.000306678550859624      -0.603192837157507       0.780369566461051