! This file was generated by CST Filter Designer 3D
! _________________________________________________
! Date:                         06.11.2025 15:50:54

# MHZ S RI R 50
!              Frequency                 Re(S11)                 Im(S11)                 Re(S21)                 Im(S21)                 Re(S12)                 Im(S12)                 Re(S22)                 Im(S22)
                   11440      -0.794799257208304       0.596001173205484   -0.000105285519887634   -0.000131146027219912   -0.000105285519887634   -0.000131146027219912      -0.794799257208304       0.596001173205484
                 11440.2      -0.793950516038959       0.597082640301902   -0.000106273545460128    -0.00013199048771601   -0.000106273545460128    -0.00013199048771601      -0.793950516038959       0.597082640301902
                 11440.4      -0.793096447857135       0.598167675150874   -0.000107272401717778    -0.00013284088546886   -0.000107272401717778    -0.00013284088546886      -0.793096447857135       0.598167675150874
                 11440.6      -0.792237007490795       0.599256292124388   -0.000108282221706883   -0.000133697256274671   -0.000108282221706883   -0.000133697256274671      -0.792237007490795       0.599256292124388
                 11440.8      -0.791372149282981       0.600348505624311   -0.000109303140221191   -0.000134559635865218   -0.000109303140221191   -0.000134559635865218      -0.791372149282981       0.600348505624311
                   11441      -0.790501827085476       0.601444330081436   -0.000110335293824629   -0.000135428059896891   -0.000110335293824629   -0.000135428059896891      -0.790501827085476       0.601444330081436
                 11441.2      -0.789625994252377        0.60254377995448   -0.000111378820874257   -0.000136302563939343   -0.000111378820874257   -0.000136302563939343      -0.789625994252377        0.60254377995448
                 11441.4      -0.788744603633594       0.603646869729039    -0.00011243386154344   -0.000137183183463739    -0.00011243386154344   -0.000137183183463739      -0.788744603633594       0.603646869729039
                 11441.6      -0.787857607568239       0.604753613916484   -0.000113500557845236    -0.00013806995383058   -0.000113500557845236    -0.00013806995383058      -0.787857607568239       0.604753613916484
                 11441.8      -0.786964957877868       0.605864027052904   -0.000114579053656094   -0.000138962910277173   -0.000114579053656094   -0.000138962910277173      -0.786964957877868       0.605864027052904
                   11442      -0.786066605859728       0.606978123697867   -0.000115669494739633   -0.000139862087904554   -0.000115669494739633   -0.000139862087904554      -0.786066605859728       0.606978123697867
                 11442.2      -0.785162502279753       0.608095918433306   -0.000116772028770816   -0.000140767521664102   -0.000116772028770816   -0.000140767521664102      -0.785162502279753       0.608095918433306
                 11442.4      -0.784252597365592       0.609217425862222   -0.000117886805360205   -0.000141679246343574   -0.000117886805360205   -0.000141679246343574      -0.784252597365592       0.609217425862222
                 11442.6       -0.78333684079942       0.610342660607443   -0.000119013976078531   -0.000142597296552756   -0.000119013976078531   -0.000142597296552756       -0.78333684079942       0.610342660607443
                 11442.8      -0.782415181710704       0.611471637310289   -0.000120153694481434   -0.000143521706708579   -0.000120153694481434   -0.000143521706708579      -0.782415181710704       0.611471637310289
                   11443      -0.781487568668817        0.61260437062922   -0.000121306116134446   -0.000144452511019767   -0.000121306116134446   -0.000144452511019767      -0.781487568668817        0.61260437062922
                 11443.2      -0.780553949675554       0.613740875238418   -0.000122471398638166   -0.000145389743470947   -0.000122471398638166   -0.000145389743470947      -0.780553949675554       0.613740875238418
                 11443.4      -0.779614272157539       0.614881165826329   -0.000123649701653644   -0.000146333437806244   -0.000123649701653644   -0.000146333437806244      -0.779614272157539       0.614881165826329
                 11443.6      -0.778668482958491       0.616025257094159   -0.000124841186927981   -0.000147283627512322   -0.000124841186927981   -0.000147283627512322      -0.778668482958491       0.616025257094159
                 11443.8      -0.777716528331364       0.617173163754345   -0.000126046018320149   -0.000148240345800904   -0.000126046018320149   -0.000148240345800904      -0.777716528331364       0.617173163754345
                   11444        -0.7767583539304       0.618324900528917   -0.000127264361826942   -0.000149203625590643   -0.000127264361826942   -0.000149203625590643        -0.7767583539304       0.618324900528917
                 11444.2      -0.775793904803006        0.61948048214787    -0.00012849638560919   -0.000150173499488482    -0.00012849638560919   -0.000150173499488482      -0.775793904803006        0.61948048214787
                 11444.4      -0.774823125381547       0.620639923347443   -0.000129742260018109   -0.000151149999770338   -0.000129742260018109   -0.000151149999770338      -0.774823125381547       0.620639923347443
                 11444.6      -0.773845959474971       0.621803238868364    -0.00013100215762186   -0.000152133158361211    -0.00013100215762186   -0.000152133158361211      -0.773845959474971       0.621803238868364
                 11444.8      -0.772862350260327       0.622970443454023    -0.00013227625323225   -0.000153123006814607    -0.00013227625323225   -0.000153123006814607      -0.772862350260327       0.622970443454023
                   11445      -0.771872240274132       0.624141551848597   -0.000133564723931626   -0.000154119576291323   -0.000133564723931626   -0.000154119576291323      -0.771872240274132       0.624141551848597
                 11445.2      -0.770875571403587       0.625316578795133   -0.000134867749099935   -0.000155122897537555   -0.000134867749099935   -0.000155122897537555      -0.770875571403587       0.625316578795133
                 11445.4      -0.769872284877705       0.626495539033511   -0.000136185510441867   -0.000156133000862259   -0.000136185510441867   -0.000156133000862259      -0.769872284877705       0.626495539033511
                 11445.6      -0.768862321258229       0.627678447298408   -0.000137518192014226   -0.000157149916113845   -0.000137518192014226   -0.000157149916113845      -0.768862321258229       0.627678447298408
                 11445.8      -0.767845620430422       0.628865318317195   -0.000138865980253404   -0.000158173672656117   -0.000138865980253404   -0.000158173672656117      -0.767845620430422       0.628865318317195
                   11446      -0.766822121593742       0.630056166807707   -0.000140229064002942   -0.000159204299343414   -0.000140229064002942   -0.000159204299343414      -0.766822121593742       0.630056166807707
                 11446.2      -0.765791763252341       0.631251007475988   -0.000141607634541222   -0.000160241824494981   -0.000141607634541222   -0.000160241824494981      -0.765791763252341       0.631251007475988
                 11446.4      -0.764754483205378       0.632449855013998   -0.000143001885609315   -0.000161286275868579   -0.000143001885609315   -0.000161286275868579      -0.764754483205378       0.632449855013998
                 11446.6      -0.763710218537242       0.633652724097158    -0.00014441201343881   -0.000162337680633175    -0.00014441201343881   -0.000162337680633175      -0.763710218537242       0.633652724097158
                 11446.8      -0.762658905607548       0.634859629381917    -0.00014583821677983   -0.000163396065340864    -0.00014583821677983   -0.000163396065340864      -0.762658905607548       0.634859629381917
                   11447      -0.761600480041017       0.636070585503172   -0.000147280696929026   -0.000164461455897846   -0.000147280696929026   -0.000164461455897846      -0.761600480041017       0.636070585503172
                 11447.2       -0.76053487671714       0.637285607071666   -0.000148739657757695   -0.000165533877534558   -0.000148739657757695   -0.000165533877534558       -0.76053487671714       0.637285607071666
                 11447.4      -0.759462029759733        0.63850470867125   -0.000150215305739856   -0.000166613354774818   -0.000150215305739856   -0.000166613354774818      -0.759462029759733        0.63850470867125
                 11447.6      -0.758381872526282       0.639727904856082   -0.000151707849980376   -0.000167699911404036   -0.000151707849980376   -0.000167699911404036      -0.758381872526282       0.639727904856082
                 11447.8      -0.757294337597074         0.6409552101478   -0.000153217502243167   -0.000168793570436492   -0.000153217502243167   -0.000168793570436492      -0.757294337597074         0.6409552101478
                   11448      -0.756199356764256       0.642186639032484   -0.000154744476979208   -0.000169894354081498   -0.000154744476979208   -0.000169894354081498      -0.756199356764256       0.642186639032484
                 11448.2      -0.755096861020588       0.643422205957652   -0.000156288991354699   -0.000171002283708623   -0.000156288991354699   -0.000171002283708623      -0.755096861020588       0.643422205957652
                 11448.4        -0.7539867805481       0.644661925329078   -0.000157851265279037   -0.000172117379811786   -0.000157851265279037   -0.000172117379811786        -0.7539867805481       0.644661925329078
                 11448.6      -0.752869044706487       0.645905811507582   -0.000159431521432818     -0.0001732396619723   -0.000159431521432818     -0.0001732396619723      -0.752869044706487       0.645905811507582
                 11448.8      -0.751743582021386        0.64715387880564   -0.000161029985295621   -0.000174369148820723   -0.000161029985295621   -0.000174369148820723      -0.751743582021386        0.64715387880564
                   11449      -0.750610320172381       0.648406141483985   -0.000162646885173789   -0.000175505857997622   -0.000162646885173789   -0.000175505857997622      -0.750610320172381       0.648406141483985
                 11449.2      -0.749469185980866       0.649662613748021   -0.000164282452227967   -0.000176649806113075   -0.000164282452227967   -0.000176649806113075      -0.749469185980866       0.649662613748021
                 11449.4      -0.748320105397646       0.650923309744206    -0.00016593692050055   -0.000177801008705017    -0.00016593692050055   -0.000177801008705017      -0.748320105397646       0.650923309744206
                 11449.6      -0.747163003490376       0.652188243556263    -0.00016761052694286   -0.000178959480196265    -0.00016761052694286   -0.000178959480196265      -0.747163003490376       0.652188243556263
                 11449.8      -0.745997804430776       0.653457429201301   -0.000169303511442115   -0.000180125233850271   -0.000169303511442115   -0.000180125233850271      -0.745997804430776       0.653457429201301
                   11450      -0.744824431481586       0.654730880625853   -0.000171016116848183   -0.000181298281725574   -0.000171016116848183   -0.000181298281725574      -0.744824431481586       0.654730880625853
                 11450.2      -0.743642806983363       0.656008611701729   -0.000172748588999965   -0.000182478634628823   -0.000172748588999965   -0.000182478634628823      -0.743642806983363       0.656008611701729
                 11450.4      -0.742452852341015       0.657290636221791    -0.00017450117675149   -0.000183666302066442    -0.00017450117675149   -0.000183666302066442      -0.742452852341015       0.657290636221791
                 11450.6      -0.741254488010087       0.658576967895611   -0.000176274131997681   -0.000184861292194849   -0.000176274131997681   -0.000184861292194849      -0.741254488010087       0.658576967895611
                 11450.8      -0.740047633482854       0.659867620344962   -0.000178067709699659   -0.000186063611769168   -0.000178067709699659   -0.000186063611769168      -0.740047633482854       0.659867620344962
                   11451      -0.738832207274137       0.661162607099205   -0.000179882167909654   -0.000187273266090435   -0.000179882167909654   -0.000187273266090435      -0.738832207274137       0.661162607099205
                 11451.2      -0.737608126906916       0.662461941590499   -0.000181717767795369   -0.000188490258951208   -0.000181717767795369   -0.000188490258951208      -0.737608126906916       0.662461941590499
                 11451.4      -0.736375308897625       0.663765637148945   -0.000183574773663936   -0.000189714592579636   -0.000183574773663936   -0.000189714592579636      -0.736375308897625       0.663765637148945
                 11451.6      -0.735133668741253       0.665073706997509    -0.00018545345298519   -0.000190946267581805    -0.00018545345298519   -0.000190946267581805      -0.735133668741253       0.665073706997509
                 11451.8      -0.733883120896166       0.666386164246825   -0.000187354076414366   -0.000192185282882414   -0.000187354076414366   -0.000192185282882414      -0.733883120896166       0.666386164246825
                   11452      -0.732623578768653       0.667703021889851    -0.00018927691781413   -0.000193431635663713    -0.00018927691781413   -0.000193431635663713      -0.732623578768653       0.667703021889851
                 11452.2      -0.731354954697227       0.669024292796342   -0.000191222254275861   -0.000194685321302634   -0.000191222254275861   -0.000194685321302634      -0.731354954697227       0.669024292796342
                 11452.4      -0.730077159936608       0.670349989707194   -0.000193190366140203   -0.000195946333306107   -0.000193190366140203   -0.000195946333306107      -0.730077159936608       0.670349989707194
                 11452.6      -0.728790104641451        0.67168012522861   -0.000195181537016747    -0.00019721466324448   -0.000195181537016747    -0.00019721466324448      -0.728790104641451        0.67168012522861
                 11452.8      -0.727493697849799       0.673014711826057   -0.000197196053802789   -0.000198490300682979   -0.000197196053802789   -0.000198490300682979      -0.727493697849799       0.673014711826057
                   11453      -0.726187847466226       0.674353761818087   -0.000199234206701151   -0.000199773233111189   -0.000199234206701151   -0.000199773233111189      -0.726187847466226       0.674353761818087
                 11453.2      -0.724872460244659       0.675697287369977   -0.000201296289237007   -0.000201063445870526   -0.000201296289237007   -0.000201063445870526      -0.724872460244659       0.675697287369977
                 11453.4      -0.723547441770947       0.677045300487136   -0.000203382598273511   -0.000202360922079545   -0.000203382598273511   -0.000202360922079545      -0.723547441770947       0.677045300487136
                 11453.6      -0.722212696445073       0.678397813008366   -0.000205493434026336    -0.00020366564255715   -0.000205493434026336    -0.00020366564255715      -0.722212696445073       0.678397813008366
                 11453.8       -0.72086812746304       0.679754836598926   -0.000207629100076948   -0.000204977585743597   -0.000207629100076948   -0.000204977585743597       -0.72086812746304       0.679754836598926
                   11454      -0.719513636798503       0.681116382743322   -0.000209789903384449   -0.000206296727619157   -0.000209789903384449   -0.000206296727619157      -0.719513636798503       0.681116382743322
                 11454.2      -0.718149125184005       0.682482462737949   -0.000211976154296086   -0.000207623041620521   -0.000211976154296086   -0.000207623041620521      -0.718149125184005       0.682482462737949
                 11454.4      -0.716774492091875       0.683853087683516   -0.000214188166556239   -0.000208956498554809   -0.000214188166556239   -0.000208956498554809      -0.716774492091875       0.683853087683516
                 11454.6      -0.715389635714814       0.685228268477218   -0.000216426257313767   -0.000210297066511103   -0.000216426257313767   -0.000210297066511103      -0.715389635714814       0.685228268477218
                 11454.8      -0.713994452946107       0.686608015804684   -0.000218690747127652   -0.000211644710769481   -0.000218690747127652   -0.000211644710769481      -0.713994452946107       0.686608015804684
                   11455      -0.712588839359475       0.687992340131708   -0.000220981959970856   -0.000212999393707478   -0.000220981959970856   -0.000212999393707478      -0.712588839359475       0.687992340131708
                 11455.2      -0.711172689188605       0.689381251695674   -0.000223300223232167   -0.000214361074703855   -0.000223300223232167   -0.000214361074703855      -0.711172689188605       0.689381251695674
                 11455.4      -0.709745895306204       0.690774760496833   -0.000225645867716169   -0.000215729710039751   -0.000225645867716169   -0.000215729710039751      -0.709745895306204       0.690774760496833
                 11455.6      -0.708308349202787       0.692172876289213   -0.000228019227640889   -0.000217105252796952   -0.000228019227640889   -0.000217105252796952      -0.708308349202787       0.692172876289213
                 11455.8      -0.706859940964987       0.693575608571333   -0.000230420640633274   -0.000218487652753369   -0.000230420640633274   -0.000218487652753369      -0.706859940964987       0.693575608571333
                   11456      -0.705400559253515       0.694982966576609   -0.000232850447722206    -0.00021987685627558   -0.000232850447722206    -0.00021987685627558      -0.705400559253515       0.694982966576609
                 11456.2      -0.703930091280703       0.696394959263469   -0.000235308993328954   -0.000221272806208349   -0.000235308993328954   -0.000221272806208349      -0.703930091280703       0.696394959263469
                 11456.4      -0.702448422787613       0.697811595305208   -0.000237796625254988   -0.000222675441761117   -0.000237796625254988   -0.000222675441761117      -0.702448422787613       0.697811595305208
                 11456.6      -0.700955438020746       0.699232883079511   -0.000240313694666889   -0.000224084698391309   -0.000240313694666889   -0.000224084698391309      -0.700955438020746       0.699232883079511
                 11456.8      -0.699451019708269       0.700658830657704   -0.000242860556078339   -0.000225500507684463   -0.000242860556078339   -0.000225500507684463      -0.699451019708269       0.700658830657704
                   11457      -0.697935049035906       0.702089445793602   -0.000245437567328779   -0.000226922797230964   -0.000245437567328779   -0.000226922797230964      -0.697935049035906       0.702089445793602
                 11457.2      -0.696407405622245       0.703524735912132   -0.000248045089558926   -0.000228351490499503   -0.000248045089558926   -0.000228351490499503      -0.696407405622245       0.703524735912132
                 11457.4      -0.694867967493667       0.704964708097549   -0.000250683487182644   -0.000229786506707013   -0.000250683487182644   -0.000229786506707013      -0.694867967493667       0.704964708097549
                 11457.6      -0.693316611058783       0.706409369081315    -0.00025335312785512   -0.000231227760685052    -0.00025335312785512   -0.000231227760685052      -0.693316611058783       0.706409369081315
                 11457.8      -0.691753211082368       0.707858725229641   -0.000256054382437183   -0.000232675162742593   -0.000256054382437183   -0.000232675162742593      -0.691753211082368       0.707858725229641
                   11458      -0.690177640658863       0.709312782530593   -0.000258787624955389   -0.000234128618525036   -0.000258787624955389   -0.000234128618525036      -0.690177640658863       0.709312782530593
                 11458.2       -0.68858977118529       0.710771546580902   -0.000261553232557916   -0.000235588028869488   -0.000261553232557916   -0.000235588028869488       -0.68858977118529       0.710771546580902
                 11458.4      -0.686989472333722       0.712235022572304   -0.000264351585465783   -0.000237053289656094   -0.000264351585465783   -0.000237053289656094      -0.686989472333722       0.712235022572304
                 11458.6      -0.685376612023161       0.713703215277543   -0.000267183066919376   -0.000238524291655448   -0.000267183066919376   -0.000238524291655448      -0.685376612023161       0.713703215277543
                 11458.8      -0.683751056391003       0.715176129035834   -0.000270048063119714   -0.000240000920371824   -0.000270048063119714   -0.000240000920371824      -0.683751056391003       0.715176129035834
                   11459      -0.682112669763767       0.716653767738065   -0.000272946963164722   -0.000241483055882407   -0.000272946963164722   -0.000241483055882407      -0.682112669763767       0.716653767738065
                 11459.2      -0.680461314627466       0.718136134811374   -0.000275880158979581   -0.000242970572672103   -0.000275880158979581   -0.000242970572672103      -0.680461314627466       0.718136134811374
                 11459.4      -0.678796851597243         0.7196232332034   -0.000278848045241472   -0.000244463339464135   -0.000278848045241472   -0.000244463339464135      -0.678796851597243         0.7196232332034
                 11459.6      -0.677119139386507       0.721115065365994   -0.000281851019298023   -0.000245961219046133   -0.000281851019298023   -0.000245961219046133      -0.677119139386507       0.721115065365994
                 11459.8      -0.675428034775469        0.72261163323843   -0.000284889481079253   -0.000247464068091688   -0.000284889481079253   -0.000247464068091688      -0.675428034775469        0.72261163323843
                   11460      -0.673723392579035       0.724112938230152   -0.000287963833002787   -0.000248971736977306   -0.000287963833002787   -0.000248971736977306      -0.673723392579035       0.724112938230152
                 11460.2      -0.672005065614086       0.725618981202972   -0.000291074479871881   -0.000250484069594629   -0.000291074479871881   -0.000250484069594629      -0.672005065614086       0.725618981202972
                 11460.4      -0.670272904666132       0.727129762452736   -0.000294221828765925   -0.000252000903157827   -0.000294221828765925   -0.000252000903157827      -0.670272904666132       0.727129762452736
                 11460.6      -0.668526758455315       0.728645281690419   -0.000297406288923047    -0.00025352206800607   -0.000297406288923047    -0.00025352206800607      -0.668526758455315       0.728645281690419
                 11460.8      -0.666766473601712       0.730165538022676   -0.000300628271614507   -0.000255047387401011   -0.000300628271614507   -0.000255047387401011      -0.666766473601712       0.730165538022676
                   11461       -0.66499189459001       0.731690529931773   -0.000303888190010313   -0.000256576677319138   -0.000303888190010313   -0.000256576677319138       -0.66499189459001       0.731690529931773
                 11461.2      -0.663202863733423       0.733220255254928   -0.000307186459035807   -0.000258109746238946   -0.000307186459035807   -0.000258109746238946      -0.663202863733423       0.733220255254928
                 11461.4      -0.661399221136955       0.734754711163001     -0.0003105234952186   -0.000259646394922782     -0.0003105234952186   -0.000259646394922782      -0.661399221136955       0.734754711163001
                 11461.6      -0.659580804659878       0.736293894138565   -0.000313899716525564   -0.000261186416193339   -0.000313899716525564   -0.000261186416193339      -0.659580804659878       0.736293894138565
                 11461.8      -0.657747449877527       0.737837799953253   -0.000317315542189181   -0.000262729594704608   -0.000317315542189181   -0.000262729594704608      -0.657747449877527       0.737837799953253
                   11462      -0.655898990042272       0.739386423644472   -0.000320771392522978    -0.00026427570670732   -0.000320771392522978    -0.00026427570670732      -0.655898990042272       0.739386423644472
                 11462.2      -0.654035256043777       0.740939759491335    -0.00032426768872523   -0.000265824519808644    -0.00032426768872523   -0.000265824519808644      -0.654035256043777       0.740939759491335
                 11462.4       -0.65215607636837        0.74249780098994   -0.000327804852670728   -0.000267375792726228   -0.000327804852670728   -0.000267375792726228       -0.65215607636837        0.74249780098994
                 11462.6      -0.650261277057718       0.744060540827777   -0.000331383306689562   -0.000268929275036279   -0.000331383306689562   -0.000268929275036279      -0.650261277057718       0.744060540827777
                 11462.8      -0.648350681666538       0.745627970857462   -0.000335003473332829   -0.000270484706915847   -0.000335003473332829   -0.000270484706915847      -0.648350681666538       0.745627970857462
                   11463      -0.646424111219593       0.747200082069537   -0.000338665775124068    -0.00027204181887897   -0.000338665775124068    -0.00027204181887897      -0.646424111219593       0.747200082069537
                 11463.2      -0.644481384167672       0.748776864564553   -0.000342370634296325   -0.000273600331506869   -0.000342370634296325   -0.000273600331506869      -0.644481384167672       0.748776864564553
                 11463.4      -0.642522316342818       0.750358307524168   -0.000346118472513571   -0.000275159955171864   -0.000346118472513571   -0.000275159955171864      -0.642522316342818       0.750358307524168
                 11463.6      -0.640546720912568       0.751944399181403   -0.000349909710576155   -0.000276720389755133   -0.000349909710576155   -0.000276720389755133      -0.640546720912568       0.751944399181403
                 11463.8       -0.63855440833319       0.753535126790037   -0.000353744768109537   -0.000278281324358236   -0.000353744768109537   -0.000278281324358236       -0.63855440833319       0.753535126790037
                   11464       -0.63654518630218       0.755130476592861   -0.000357624063234897   -0.000279842437008118   -0.000357624063234897   -0.000279842437008118       -0.63654518630218       0.755130476592861
                 11464.2      -0.634518859709564       0.756730433789122   -0.000361548012221655   -0.000281403394355889   -0.000361548012221655   -0.000281403394355889      -0.634518859709564       0.756730433789122
                 11464.4      -0.632475230588295       0.758334982500865   -0.000365517029120395   -0.000282963851369088   -0.000365517029120395   -0.000282963851369088      -0.632475230588295       0.758334982500865
                 11464.6      -0.630414098063631        0.75994410573822   -0.000369531525375451   -0.000284523451017457   -0.000369531525375451   -0.000284523451017457      -0.630414098063631        0.75994410573822
                 11464.8      -0.628335258301484       0.761557785363569   -0.000373591909416154   -0.000286081823952195   -0.000373591909416154   -0.000286081823952195      -0.628335258301484       0.761557785363569
                   11465      -0.626238504455609       0.763176002054666   -0.000377698586225961   -0.000287638588178747   -0.000377698586225961   -0.000287638588178747      -0.626238504455609       0.763176002054666
                 11465.2      -0.624123626613836        0.76479873526647   -0.000381851956887926   -0.000289193348722949   -0.000381851956887926   -0.000289193348722949      -0.624123626613836        0.76479873526647
                 11465.4      -0.621990411743032       0.766425963191889   -0.000386052418106011   -0.000290745697290746   -0.000386052418106011   -0.000290745697290746      -0.621990411743032       0.766425963191889
                 11465.6      -0.619838643633094       0.768057662721136   -0.000390300361700418   -0.000292295211921255   -0.000390300361700418   -0.000292295211921255      -0.619838643633094       0.768057662721136
                 11465.8      -0.617668102839513        0.76969380939998   -0.000394596174076572    -0.00029384145663351   -0.000394596174076572    -0.00029384145663351      -0.617668102839513        0.76969380939998
                   11466      -0.615478566625075       0.771334377386417   -0.000398940235665355   -0.000295383981066514   -0.000398940235665355   -0.000295383981066514      -0.615478566625075       0.771334377386417
                 11466.2      -0.613269808899996       0.772979339406188   -0.000403332920334566   -0.000296922320113126   -0.000403332920334566   -0.000296922320113126      -0.613269808899996       0.772979339406188
                 11466.4      -0.611041600161043       0.774628666706706    -0.00040777459476909    -0.00029845599354746    -0.00040777459476909    -0.00029845599354746      -0.611041600161043       0.774628666706706
                 11466.6      -0.608793707429253       0.776282329009566   -0.000412265617819037   -0.000299984505646127   -0.000412265617819037   -0.000299984505646127      -0.608793707429253       0.776282329009566
                 11466.8       -0.60652589418636       0.777940294461515   -0.000416806339814064   -0.000301507344803354   -0.000416806339814064   -0.000301507344803354       -0.60652589418636       0.777940294461515
                   11467      -0.604237920309871       0.779602529583826   -0.000421397101842318   -0.000303023983140112   -0.000421397101842318   -0.000303023983140112      -0.604237920309871       0.779602529583826