! This file was generated by CST Filter Designer 3D
! _________________________________________________
! Date:                         06.11.2025 15:51:11

# MHZ S RI R 50
!              Frequency                 Re(S11)                 Im(S11)                 Re(S21)                 Im(S21)                 Re(S12)                 Im(S12)                 Re(S22)                 Im(S22)
                   11440      -0.793751158226357       0.597366111145055   -0.000108262369349768   -0.000134371411683494   -0.000108262369349768   -0.000134371411683494      -0.793751158226357       0.597366111145055
                 11440.2      -0.792898193311702        0.59844908330149   -0.000109277830387165   -0.000135235223308356   -0.000109277830387165   -0.000135235223308356      -0.792898193311702        0.59844908330149
                 11440.4      -0.792039875975576        0.59953562084973   -0.000110304416480121   -0.000136105089798417   -0.000110304416480121   -0.000136105089798417      -0.792039875975576        0.59953562084973
                 11440.6      -0.791176160843831       0.600625738069984    -0.00011134226420584   -0.000136981047342678    -0.00011134226420584   -0.000136981047342678      -0.791176160843831       0.600625738069984
                 11440.8      -0.790307002055421       0.601719449270692   -0.000112391511934275   -0.000137863132056021   -0.000112391511934275   -0.000137863132056021      -0.790307002055421       0.601719449270692
                   11441      -0.789432353256043        0.60281676878753    -0.00011345229985144   -0.000138751379967849    -0.00011345229985144   -0.000138751379967849      -0.789432353256043        0.60281676878753
                 11441.2      -0.788552167591691        0.60391771098239   -0.000114524769982949   -0.000139645827010335   -0.000114524769982949   -0.000139645827010335      -0.788552167591691        0.60391771098239
                 11441.4      -0.787666397702124       0.605022290242288   -0.000115609066217784    -0.00014054650900624   -0.000115609066217784    -0.00014054650900624      -0.787666397702124       0.605022290242288
                 11441.6      -0.786774995714243       0.606130520978245   -0.000116705334332283   -0.000141453461656306   -0.000116705334332283   -0.000141453461656306      -0.786774995714243       0.606130520978245
                 11441.8      -0.785877913235303       0.607242417624186   -0.000117813722014441   -0.000142366720526284   -0.000117813722014441   -0.000142366720526284      -0.785877913235303       0.607242417624186
                   11442      -0.784975101346132       0.608357994635673   -0.000118934378888305   -0.000143286321033393   -0.000118934378888305   -0.000143286321033393      -0.784975101346132       0.608357994635673
                 11442.2      -0.784066510594114       0.609477266488756   -0.000120067456538767   -0.000144212298432467   -0.000120067456538767   -0.000144212298432467      -0.784066510594114       0.609477266488756
                 11442.4      -0.783152090986182       0.610600247678642    -0.00012121310853644   -0.000145144687801504    -0.00012121310853644   -0.000145144687801504      -0.783152090986182       0.610600247678642
                 11442.6      -0.782231791981612       0.611726952718421   -0.000122371490462864    -0.00014608352402682   -0.000122371490462864    -0.00014608352402682      -0.782231791981612       0.611726952718421
                 11442.8      -0.781305562484758        0.61285739613769   -0.000123542759935881   -0.000147028841787653   -0.000123542759935881   -0.000147028841787653      -0.781305562484758        0.61285739613769
                   11443      -0.780373350837645       0.613991592481171   -0.000124727076635264   -0.000147980675540287   -0.000124727076635264   -0.000147980675540287      -0.780373350837645       0.613991592481171
                 11443.2      -0.779435104812459        0.61512955630725   -0.000125924602328538   -0.000148939059501624   -0.000125924602328538   -0.000148939059501624      -0.779435104812459        0.61512955630725
                 11443.4      -0.778490771603925       0.616271302186487   -0.000127135500897027   -0.000149904027632214   -0.000127135500897027   -0.000149904027632214      -0.778490771603925       0.616271302186487
                 11443.6      -0.777540297821551       0.617416844700066    -0.00012835993836211   -0.000150875613618743    -0.00012835993836211   -0.000150875613618743      -0.777540297821551       0.617416844700066
                 11443.8      -0.776583629481736       0.618566198438236   -0.000129598082911711   -0.000151853850855953   -0.000129598082911711   -0.000151853850855953      -0.776583629481736       0.618566198438236
                   11444      -0.775620711999802       0.619719377998623   -0.000130850104926927   -0.000152838772427919   -0.000130850104926927   -0.000152838772427919      -0.775620711999802       0.619719377998623
                 11444.2      -0.774651490181843       0.620876397984571   -0.000132116177008922   -0.000153830411088788   -0.000132116177008922   -0.000153830411088788      -0.774651490181843       0.620876397984571
                 11444.4      -0.773675908216485       0.622037273003366   -0.000133396474005961   -0.000154828799242831   -0.000133396474005961   -0.000154828799242831      -0.773675908216485       0.622037273003366
                 11444.6      -0.772693909666489       0.623202017664453   -0.000134691173040663   -0.000155833968923898   -0.000134691173040663   -0.000155833968923898      -0.772693909666489       0.623202017664453
                 11444.8      -0.771705437460237       0.624370646577554   -0.000136000453537401   -0.000156845951774172   -0.000136000453537401   -0.000156845951774172      -0.771705437460237       0.624370646577554
                   11445      -0.770710433883075       0.625543174350755   -0.000137324497249899   -0.000157864779022267   -0.000137324497249899   -0.000157864779022267      -0.770710433883075       0.625543174350755
                 11445.2      -0.769708840568495       0.626719615588541      -0.000138663488289   -0.000158890481460629      -0.000138663488289   -0.000158890481460629      -0.769708840568495       0.626719615588541
                 11445.4      -0.768700598489236        0.62789998488971   -0.000140017613150528   -0.000159923089422174   -0.000140017613150528   -0.000159923089422174      -0.768700598489236        0.62789998488971
                 11445.6      -0.767685647948173       0.629084296845299   -0.000141387060743372   -0.000160962632756234   -0.000141387060743372   -0.000160962632756234      -0.767685647948173       0.629084296845299
                 11445.8      -0.766663928569077        0.63027256603642   -0.000142772022417699   -0.000162009140803735   -0.000142772022417699   -0.000162009140803735      -0.766663928569077        0.63027256603642
                   11446      -0.765635379287259       0.631464807031991   -0.000144172691993229    -0.00016306264237155   -0.000144172691993229    -0.00016306264237155      -0.765635379287259       0.631464807031991
                 11446.2      -0.764599938340037       0.632661034386425   -0.000145589265787679   -0.000164123165706071   -0.000145589265787679   -0.000164123165706071      -0.764599938340037       0.632661034386425
                 11446.4      -0.763557543257021       0.633861262637288    -0.00014702194264534    -0.00016519073846598    -0.00014702194264534    -0.00016519073846598      -0.763557543257021       0.633861262637288
                 11446.6      -0.762508130850304        0.63506550630279    -0.00014847092396566   -0.000166265387694101    -0.00014847092396566   -0.000166265387694101      -0.762508130850304        0.63506550630279
                 11446.8      -0.761451637204423       0.636273779879303   -0.000149936413732006   -0.000167347139788443   -0.000149936413732006   -0.000167347139788443      -0.761451637204423       0.636273779879303
                   11447      -0.760387997666208       0.637486097838717    -0.00015141861854041   -0.000168436020472281    -0.00015141861854041   -0.000168436020472281      -0.760387997666208       0.637486097838717
                 11447.2       -0.75931714683442       0.638702474625795   -0.000152917747628458   -0.000169532054763376   -0.000152917747628458   -0.000169532054763376       -0.75931714683442       0.638702474625795
                 11447.4      -0.758239018549261       0.639922924655363   -0.000154434012904115   -0.000170635266942167   -0.000154434012904115   -0.000170635266942167      -0.758239018549261       0.639922924655363
                 11447.6      -0.757153545881697       0.641147462309464   -0.000155967628974627   -0.000171745680519021   -0.000155967628974627   -0.000171745680519021      -0.757153545881697       0.641147462309464
                 11447.8       -0.75606066112255       0.642376101934468   -0.000157518813175483   -0.000172863318200514   -0.000157518813175483   -0.000172863318200514       -0.75606066112255       0.642376101934468
                   11448       -0.75496029577152       0.643608857837967    -0.00015908778559922   -0.000173988201854569    -0.00015908778559922   -0.000173988201854569       -0.75496029577152       0.643608857837967
                 11448.2       -0.75385238052591       0.644845744285718   -0.000160674769124342   -0.000175120352474648   -0.000160674769124342   -0.000175120352474648       -0.75385238052591       0.644845744285718
                 11448.4      -0.752736845269244       0.646086775498389   -0.000162279989444088   -0.000176259790142754   -0.000162279989444088   -0.000176259790142754      -0.752736845269244       0.646086775498389
                 11448.6      -0.751613619059629       0.647331965648291   -0.000163903675095207   -0.000177406533991387   -0.000163903675095207   -0.000177406533991387      -0.751613619059629       0.647331965648291
                 11448.8      -0.750482630117994       0.648581328855924   -0.000165546057486535   -0.000178560602164254   -0.000165546057486535   -0.000178560602164254      -0.750482630117994       0.648581328855924
                   11449      -0.749343805816058       0.649834879186499   -0.000167207370927557   -0.000179722011775881   -0.000167207370927557   -0.000179722011775881      -0.749343805816058       0.649834879186499
                 11449.2       -0.74819707266416       0.651092630646297   -0.000168887852656741   -0.000180890778869923   -0.000168887852656741   -0.000180890778869923       -0.74819707266416       0.651092630646297
                 11449.4      -0.747042356298822       0.652354597178971   -0.000170587742869766   -0.000182066918376281   -0.000170587742869766   -0.000182066918376281      -0.747042356298822       0.652354597178971
                 11449.6      -0.745879581470149       0.653620792661691   -0.000172307284747502    -0.00018325044406689   -0.000172307284747502    -0.00018325044406689      -0.745879581470149       0.653620792661691
                 11449.8      -0.744708672029006       0.654891230901192   -0.000174046724483763   -0.000184441368510169   -0.000174046724483763   -0.000184441368510169      -0.744708672029006       0.654891230901192
                   11450      -0.743529550913935       0.656165925629729   -0.000175806311312854   -0.000185639703024168   -0.000175806311312854   -0.000185639703024168      -0.743529550913935       0.656165925629729
                 11450.2      -0.742342140137918       0.657444890500867   -0.000177586297536746   -0.000186845457628236   -0.000177586297536746   -0.000186845457628236      -0.742342140137918       0.657444890500867
                 11450.4      -0.741146360774864       0.658728139085162   -0.000179386938551966   -0.000188058640993295   -0.000179386938551966   -0.000188058640993295      -0.741146360774864       0.658728139085162
                 11450.6      -0.739942132945861       0.660015684865753    -0.00018120849287615   -0.000189279260390643    -0.00018120849287615   -0.000189279260390643      -0.739942132945861       0.660015684865753
                 11450.8      -0.738729375805228       0.661307541233762   -0.000183051222174134     -0.0001905073216392   -0.000183051222174134     -0.0001905073216392      -0.738729375805228       0.661307541233762
                   11451      -0.737508007526287       0.662603721483603   -0.000184915391283654   -0.000191742829051227   -0.000184915391283654   -0.000191742829051227      -0.737508007526287       0.662603721483603
                 11451.2      -0.736277945286941       0.663904238808099    -0.00018680126824049   -0.000192985785376397    -0.00018680126824049   -0.000192985785376397      -0.736277945286941       0.663904238808099
                 11451.4      -0.735039105254923       0.665209106293549    -0.00018870912430321    -0.00019423619174429    -0.00018870912430321    -0.00019423619174429      -0.735039105254923       0.665209106293549
                 11451.6      -0.733791402572858       0.666518336914554   -0.000190639233977211    -0.00019549404760513   -0.000190639233977211    -0.00019549404760513      -0.733791402572858       0.666518336914554
                 11451.8      -0.732534751343041       0.667831943528731   -0.000192591875038195   -0.000196759350668807   -0.000192591875038195   -0.000196759350668807      -0.732534751343041       0.667831943528731
                   11452      -0.731269064611941       0.669149938871278   -0.000194567328554964   -0.000198032096842118   -0.000194567328554964   -0.000198032096842118      -0.731269064611941       0.669149938871278
                 11452.2      -0.729994254354459       0.670472335549347   -0.000196565878911464   -0.000199312280164162   -0.000196565878911464   -0.000199312280164162      -0.729994254354459       0.670472335549347
                 11452.4      -0.728710231457867       0.671799146036295   -0.000198587813828091   -0.000200599892739875   -0.000198587813828091   -0.000200599892739875      -0.728710231457867       0.671799146036295
                 11452.6      -0.727416905705494       0.673130382665745   -0.000200633424382121   -0.000201894924671623   -0.000200633424382121   -0.000201894924671623      -0.727416905705494       0.673130382665745
                 11452.8      -0.726114185760131       0.674466057625451   -0.000202703005027209   -0.000203197363988789   -0.000202703005027209   -0.000203197363988789      -0.726114185760131       0.674466057625451
                   11453      -0.724801979147131       0.675806182951002    -0.00020479685361194   -0.000204507196575343    -0.00020479685361194   -0.000204507196575343      -0.724801979147131       0.675806182951002
                 11453.2      -0.723480192237185       0.677150770519367   -0.000206915271397371   -0.000205824406095339   -0.000206915271397371   -0.000205824406095339      -0.723480192237185       0.677150770519367
                 11453.4       -0.72214873022885       0.678499832042182   -0.000209058563073378   -0.000207148973916213   -0.000209058563073378   -0.000207148973916213       -0.72214873022885       0.678499832042182
                 11453.6      -0.720807497130703       0.679853379058913   -0.000211227036773887   -0.000208480879029932   -0.000211227036773887   -0.000208480879029932      -0.720807497130703       0.679853379058913
                 11453.8      -0.719456395743195       0.681211422929791   -0.000213421004090839   -0.000209820097971874   -0.000213421004090839   -0.000209820097971874      -0.719456395743195       0.681211422929791
                   11454      -0.718095327640225       0.682573974828498   -0.000215640780086704   -0.000211166604737333   -0.000215640780086704   -0.000211166604737333      -0.718095327640225       0.682573974828498
                 11454.2       -0.71672419315033       0.683941045734683   -0.000217886683305647   -0.000212520370695695   -0.000217886683305647   -0.000212520370695695       -0.71672419315033       0.683941045734683
                 11454.4      -0.715342891337543       0.685312646426267    -0.00022015903578316    -0.00021388136450218    -0.00022015903578316    -0.00021388136450218      -0.715342891337543       0.685312646426267
                 11454.6      -0.713951319981918       0.686688787471488   -0.000222458163054036    -0.00021524955200704   -0.000222458163054036    -0.00021524955200704      -0.713951319981918       0.686688787471488
                 11454.8      -0.712549375559703       0.688069479220727   -0.000224784394158623   -0.000216624896162212   -0.000224784394158623   -0.000216624896162212      -0.712549375559703       0.688069479220727
                   11455      -0.711136953223139       0.689454731798103   -0.000227138061647261   -0.000218007356925326   -0.000227138061647261   -0.000218007356925326      -0.711136953223139       0.689454731798103
                 11455.2      -0.709713946779936       0.690844555092765   -0.000229519501582708   -0.000219396891160983   -0.000229519501582708   -0.000219396891160983      -0.709713946779936       0.690844555092765
                 11455.4       -0.70828024867229       0.692238958750036   -0.000231929053540649   -0.000220793452539331   -0.000231929053540649   -0.000220793452539331       -0.70828024867229       0.692238958750036
                 11455.6        -0.7068357499556       0.693637952162179    -0.00023436706060787   -0.000222196991431719    -0.00023436706060787   -0.000222196991431719        -0.7068357499556       0.693637952162179
                 11455.8      -0.705380340276749       0.695041544458967   -0.000236833869378234   -0.000223607454803484   -0.000236833869378234   -0.000223607454803484      -0.705380340276749       0.695041544458967
                   11456      -0.703913907851994        0.69644974449795   -0.000239329829946168   -0.000225024786103741   -0.000239329829946168   -0.000225024786103741      -0.703913907851994        0.69644974449795
                 11456.2       -0.70243633944447       0.697862560854411   -0.000241855295897561   -0.000226448925152086   -0.000241855295897561   -0.000226448925152086       -0.70243633944447       0.697862560854411
                 11456.4      -0.700947520341238       0.699280001811075   -0.000244410624297997   -0.000227879808022207   -0.000244410624297997   -0.000227879808022207      -0.700947520341238       0.699280001811075
                 11456.6      -0.699447334329946       0.700702075347466   -0.000246996175678041   -0.000229317366922232   -0.000246996175678041   -0.000229317366922232      -0.699447334329946       0.700702075347466
                 11456.8      -0.697935663675005       0.702128789129007   -0.000249612314015594    -0.00023076153007185   -0.000249612314015594    -0.00023076153007185      -0.697935663675005       0.702128789129007
                   11457       -0.69641238909342       0.703560150495697    -0.00025225940671486   -0.000232212221575944    -0.00025225940671486   -0.000232212221575944       -0.69641238909342       0.703560150495697
                 11457.2      -0.694877389730049       0.704996166450567   -0.000254937824582148   -0.000233669361294897   -0.000254937824582148   -0.000233669361294897      -0.694877389730049       0.704996166450567
                 11457.4      -0.693330543132475       0.706436843647726   -0.000257647941797982   -0.000235132864711285   -0.000257647941797982   -0.000235132864711285      -0.693330543132475       0.706436843647726
                 11457.6      -0.691771725225388       0.707882188380059   -0.000260390135885488   -0.000236602642792954   -0.000260390135885488   -0.000236602642792954      -0.691771725225388       0.707882188380059
                 11457.8      -0.690200810284468       0.709332206566589   -0.000263164787674865   -0.000238078601852429   -0.000263164787674865   -0.000238078601852429      -0.690200810284468       0.709332206566589
                   11458      -0.688617670909828       0.710786903739402   -0.000265972281263592   -0.000239560643402456   -0.000265972281263592   -0.000239560643402456      -0.688617670909828       0.710786903739402
                 11458.2      -0.687022177998875        0.71224628503026   -0.000268813003972386   -0.000241048664007746   -0.000268813003972386   -0.000241048664007746      -0.687022177998875        0.71224628503026
                 11458.4      -0.685414200718726       0.713710355156754   -0.000271687346296447   -0.000242542555132687   -0.000271687346296447   -0.000242542555132687      -0.685414200718726       0.713710355156754
                 11458.6      -0.683793606478029       0.715179118408103   -0.000274595701851948   -0.000244042202985049   -0.000274595701851948   -0.000244042202985049      -0.683793606478029       0.715179118408103
                 11458.8      -0.682160260898368       0.716652578630414   -0.000277538467317216   -0.000245547488355433   -0.000277538467317216   -0.000245547488355433      -0.682160260898368       0.716652578630414
                   11459      -0.680514027784944       0.718130739211679   -0.000280516042368864   -0.000247058286452637   -0.000280516042368864   -0.000247058286452637      -0.680514027784944       0.718130739211679
                 11459.2      -0.678854769096882       0.719613603066129   -0.000283528829611938   -0.000248574466734508   -0.000283528829611938   -0.000248574466734508      -0.678854769096882       0.719613603066129
                 11459.4      -0.677182344916814       0.721101172618277   -0.000286577234504399   -0.000250095892734503   -0.000286577234504399   -0.000250095892734503      -0.677182344916814       0.721101172618277
                 11459.6      -0.675496613419956       0.722593449786396   -0.000289661665275238    -0.00025162242188365   -0.000289661665275238    -0.00025162242188365      -0.675496613419956       0.722593449786396
                 11459.8      -0.673797430842592       0.724090435965502   -0.000292782532836027   -0.000253153905327884   -0.000292782532836027   -0.000253153905327884      -0.673797430842592       0.724090435965502
                   11460      -0.672084651449903       0.725592132009868   -0.000295940250685669   -0.000254690187740701   -0.000295940250685669   -0.000254690187740701      -0.672084651449903       0.725592132009868
                 11460.2      -0.670358127503194       0.727098538214978   -0.000299135234807878   -0.000256231107130973   -0.000299135234807878   -0.000256231107130973      -0.670358127503194       0.727098538214978
                 11460.4      -0.668617709226492       0.728609654298942   -0.000302367903561067   -0.000257776494645857   -0.000302367903561067   -0.000257776494645857      -0.668617709226492       0.728609654298942
                 11460.6      -0.666863244772488       0.730125479383344   -0.000305638677560254   -0.000259326174368674   -0.000305638677560254   -0.000259326174368674      -0.666863244772488       0.730125479383344
                 11460.8      -0.665094580187787       0.731646011973528   -0.000308947979550675   -0.000260879963111724   -0.000308947979550675   -0.000260879963111724      -0.665094580187787       0.731646011973528
                   11461      -0.663311559377524       0.733171249938262   -0.000312296234272531   -0.000262437670203851   -0.000312296234272531   -0.000262437670203851      -0.663311559377524       0.733171249938262
                 11461.2      -0.661514024069222       0.734701190488809   -0.000315683868316616   -0.000263999097272749   -0.000315683868316616   -0.000263999097272749      -0.661514024069222       0.734701190488809
                 11461.4      -0.659701813776004       0.736235830157334   -0.000319111309970197    -0.00026556403802183   -0.000319111309970197    -0.00026556403802183      -0.659701813776004       0.736235830157334
                 11461.6      -0.657874765759011       0.737775164774684    -0.00032257898905286   -0.000267132278001656    -0.00032257898905286   -0.000267132278001656      -0.657874765759011       0.737775164774684
                 11461.8       -0.65603271498914       0.739319189447449   -0.000326087336741598   -0.000268703594375713   -0.000326087336741598   -0.000268703594375713       -0.65603271498914       0.739319189447449
                   11462       -0.65417549410796       0.740867898534368   -0.000329636785384896   -0.000270277755680584   -0.000329636785384896   -0.000270277755680584       -0.65417549410796       0.740867898534368
                 11462.2      -0.652302933387921       0.742421285621949   -0.000333227768304959   -0.000271854521580273   -0.000333227768304959   -0.000271854521580273      -0.652302933387921       0.742421285621949
                 11462.4      -0.650414860691661       0.743979343499436   -0.000336860719587902    -0.00027343364261477   -0.000336860719587902    -0.00027343364261477      -0.650414860691661       0.743979343499436
                 11462.6      -0.648511101430634       0.745542064132882   -0.000340536073860831   -0.000275014859942556   -0.000340536073860831   -0.000275014859942556      -0.648511101430634       0.745542064132882
                 11462.8      -0.646591478522758       0.747109438638557   -0.000344254266055728   -0.000276597905077197   -0.000344254266055728   -0.000276597905077197      -0.646591478522758       0.747109438638557
                   11463       -0.64465581234937       0.748681457255401   -0.000348015731158941   -0.000278182499617708   -0.000348015731158941   -0.000278182499617708       -0.64465581234937       0.748681457255401
                 11463.2       -0.64270392071114       0.750258109316754   -0.000351820903946165   -0.000279768354972854   -0.000351820903946165   -0.000279768354972854       -0.64270392071114       0.750258109316754
                 11463.4      -0.640735618783257       0.751839383221091   -0.000355670218701643   -0.000281355172079074   -0.000355670218701643   -0.000281355172079074      -0.640735618783257       0.751839383221091
                 11463.6      -0.638750719069613       0.753425266401913    -0.00035956410892127   -0.000282942641112133    -0.00035956410892127   -0.000282942641112133      -0.638750719069613       0.753425266401913
                 11463.8       -0.63674903135599       0.755015745296758   -0.000363503006998823   -0.000284530441192449   -0.000363503006998823   -0.000284530441192449       -0.63674903135599       0.755015745296758
                   11464      -0.634730362662514       0.756610805315065   -0.000367487343893914   -0.000286118240083776   -0.000367487343893914   -0.000286118240083776      -0.634730362662514       0.756610805315065
                 11464.2      -0.632694517194899       0.758210430805217   -0.000371517548781714   -0.000287705693885583   -0.000371517548781714   -0.000287705693885583      -0.632694517194899       0.758210430805217
                 11464.4      -0.630641296294803       0.759814605020476   -0.000375594048682914   -0.000289292446718787   -0.000375594048682914   -0.000289292446718787      -0.630641296294803       0.759814605020476
                 11464.6      -0.628570498389164       0.761423310083839   -0.000379717268073183   -0.000290878130404915   -0.000379717268073183   -0.000290878130404915      -0.628570498389164       0.761423310083839
                 11464.8      -0.626481918938498       0.763036526951782    -0.00038388762847112   -0.000292462364138632    -0.00038388762847112   -0.000292462364138632      -0.626481918938498       0.763036526951782
                   11465      -0.624375350384049        0.76465423537693   -0.000388105548003918   -0.000294044754153707   -0.000388105548003918   -0.000294044754153707      -0.624375350384049        0.76465423537693
                 11465.2       -0.62225058209398       0.766276413869433   -0.000392371440949189   -0.000295624893382232   -0.000392371440949189   -0.000295624893382232       -0.62225058209398       0.766276413869433
                 11465.4      -0.620107400308298       0.767903039657242    -0.00039668571725245   -0.000297202361107317    -0.00039668571725245   -0.000297202361107317      -0.620107400308298       0.767903039657242
                 11465.6      -0.617945588082804       0.769534088644986   -0.000401048782018435   -0.000298776722609037   -0.000401048782018435   -0.000298776722609037      -0.617945588082804       0.769534088644986
                 11465.8      -0.615764925231631       0.771169535371726   -0.000405461034975878   -0.000300347528803957   -0.000405461034975878   -0.000300347528803957      -0.615764925231631       0.771169535371726
                   11466      -0.613565188268905       0.772809352967115   -0.000409922869913341   -0.000301914315877882   -0.000409922869913341   -0.000301914315877882      -0.613565188268905       0.772809352967115
                 11466.2      -0.611346150348851       0.774453513106405   -0.000414434674086075   -0.000303476604912346   -0.000414434674086075   -0.000303476604912346      -0.611346150348851       0.774453513106405
                 11466.4      -0.609107581204891       0.776101985963827   -0.000418996827591377   -0.000305033901504522   -0.000418996827591377   -0.000305033901504522      -0.609107581204891       0.776101985963827
                 11466.6      -0.606849247087334       0.777754740164557   -0.000423609702711719   -0.000306585695380901   -0.000423609702711719   -0.000306585695380901      -0.606849247087334       0.777754740164557
                 11466.8       -0.60457091069978       0.779411742735116   -0.000428273663223836   -0.000308131460004757   -0.000428273663223836   -0.000308131460004757       -0.60457091069978       0.779411742735116
                   11467      -0.602272331134181       0.781072959052171   -0.000432989063672231   -0.000309670652177551   -0.000432989063672231   -0.000309670652177551      -0.602272331134181       0.781072959052171