! This file was generated by CST Filter Designer 3D
! _________________________________________________
! Date:                         06.11.2025 15:51:31

# MHZ S RI R 50
!              Frequency                 Re(S11)                 Im(S11)                 Re(S21)                 Im(S21)                 Re(S12)                 Im(S12)                 Re(S22)                 Im(S22)
                   11440      -0.794245850162774       0.596722425347222   -0.000106923256553478   -0.000132924190470559   -0.000106923256553478   -0.000132924190470559      -0.794245850162774       0.596722425347222
                 11440.2      -0.793394874301307       0.597804694992963   -0.000107926723411218   -0.000133779731305998   -0.000107926723411218   -0.000133779731305998      -0.793394874301307       0.597804694992963
                 11440.4      -0.792538558012899        0.59889053112687   -0.000108941191087173   -0.000134641281419934   -0.000108941191087173   -0.000134641281419934      -0.792538558012899        0.59889053112687
                 11440.6      -0.791676856019732       0.599979948071505    -0.00010996679473975    -0.00013550887693349    -0.00010996679473975    -0.00013550887693349      -0.791676856019732       0.599979948071505
                 11440.8      -0.790809722558049       0.601072960178421   -0.000111003671303333   -0.000136382553899612   -0.000111003671303333   -0.000136382553899612      -0.790809722558049       0.601072960178421
                   11441      -0.789937111371809       0.602169581827185   -0.000112051959511421   -0.000137262348291929   -0.000112051959511421   -0.000137262348291929      -0.789937111371809       0.602169581827185
                 11441.2      -0.789058975706253       0.603269827424366   -0.000113111799919982   -0.000138148295993198   -0.000113111799919982   -0.000138148295993198      -0.789058975706253       0.603269827424366
                 11441.4      -0.788175268301383       0.604373711402466   -0.000114183334931044   -0.000139040432783339   -0.000114183334931044   -0.000139040432783339      -0.788175268301383       0.604373711402466
                 11441.6       -0.78728594138535       0.605481248218806   -0.000115266708816501    -0.00013993879432705   -0.000115266708816501    -0.00013993879432705       -0.78728594138535       0.605481248218806
                 11441.8      -0.786390946667675       0.606592452354449   -0.000116362067742231   -0.000140843416161052   -0.000116362067742231   -0.000140843416161052      -0.786390946667675       0.606592452354449
                   11442      -0.785490235332488       0.607707338312939   -0.000117469559792311   -0.000141754333680787   -0.000117469559792311   -0.000141754333680787      -0.785490235332488       0.607707338312939
                 11442.2      -0.784583758031518       0.608825920619178   -0.000118589334993626   -0.000142671582126793   -0.000118589334993626   -0.000142671582126793      -0.784583758031518       0.608825920619178
                 11442.4      -0.783671464877097         0.6099482138181   -0.000119721545340561   -0.000143595196570503   -0.000119721545340561   -0.000143595196570503      -0.783671464877097         0.6099482138181
                 11442.6      -0.782753305434971       0.611074232473421   -0.000120866344820027   -0.000144525211899643   -0.000120866344820027   -0.000144525211899643      -0.782753305434971       0.611074232473421
                 11442.8      -0.781829228717044       0.612203991166277   -0.000122023889436649   -0.000145461662803096   -0.000122023889436649   -0.000145461662803096      -0.781829228717044       0.612203991166277
                   11443      -0.780899183173985       0.613337504493856    -0.00012319433723821   -0.000146404583755282    -0.00012319433723821   -0.000146404583755282      -0.780899183173985       0.613337504493856
                 11443.2      -0.779963116687735       0.614474787067963   -0.000124377848341293   -0.000147354009000002   -0.000124377848341293   -0.000147354009000002      -0.779963116687735       0.614474787067963
                 11443.4      -0.779020976563893       0.615615853513532    -0.00012557458495714   -0.000148309972533751    -0.00012557458495714   -0.000148309972533751      -0.779020976563893       0.615615853513532
                 11443.6      -0.778072709523974       0.616760718467112   -0.000126784711417725   -0.000149272508088474   -0.000126784711417725   -0.000149272508088474      -0.778072709523974       0.616760718467112
                 11443.8      -0.777118261697534       0.617909396575311   -0.000128008394202064   -0.000150241649113788   -0.000128008394202064   -0.000150241649113788      -0.777118261697534       0.617909396575311
                   11444      -0.776157578614212       0.619061902493138   -0.000129245801962653   -0.000151217428758555   -0.000129245801962653   -0.000151217428758555      -0.776157578614212       0.619061902493138
                 11444.2      -0.775190605195598       0.620218250882351   -0.000130497105552186   -0.000152199879851922   -0.000130497105552186   -0.000152199879851922      -0.775190605195598       0.620218250882351
                 11444.4      -0.774217285747003       0.621378456409716     -0.0001317624780504   -0.000153189034883692     -0.0001317624780504   -0.000153189034883692      -0.774217285747003       0.621378456409716
                 11444.6      -0.773237563949076       0.622542533745228   -0.000133042094791154   -0.000154184925984095   -0.000133042094791154   -0.000154184925984095      -0.773237563949076       0.622542533745228
                 11444.8      -0.772251382849307       0.623710497560259   -0.000134336133389642   -0.000155187584902875   -0.000134336133389642   -0.000155187584902875      -0.772251382849307       0.623710497560259
                   11445      -0.771258684853385       0.624882362525662   -0.000135644773769813   -0.000156197042987728   -0.000135644773769813   -0.000156197042987728      -0.771258684853385       0.624882362525662
                 11445.2      -0.770259411716395       0.626058143309827   -0.000136968198191959   -0.000157213331162045   -0.000136968198191959   -0.000157213331162045      -0.770259411716395       0.626058143309827
                 11445.4       -0.76925350453393       0.627237854576621   -0.000138306591280402   -0.000158236479901908   -0.000138306591280402   -0.000158236479901908       -0.76925350453393       0.627237854576621
                 11445.6      -0.768240903733001       0.628421510983326   -0.000139660140051399   -0.000159266519212398   -0.000139660140051399   -0.000159266519212398      -0.768240903733001       0.628421510983326
                 11445.8      -0.767221549062812       0.629609127178507   -0.000141029033941179   -0.000160303478603155   -0.000141029033941179   -0.000160303478603155      -0.767221549062812       0.629609127178507
                   11446      -0.766195379585412       0.630800717799763   -0.000142413464834052   -0.000161347387063102   -0.000142413464834052   -0.000161347387063102      -0.766195379585412       0.630800717799763
                 11446.2      -0.765162333666193       0.631996297471436   -0.000143813627090674   -0.000162398273034421   -0.000143813627090674   -0.000162398273034421      -0.765162333666193       0.631996297471436
                 11446.4      -0.764122348964175       0.633195880802295    -0.00014522971757646   -0.000163456164385723    -0.00014522971757646   -0.000163456164385723      -0.764122348964175       0.633195880802295
                 11446.6      -0.763075362422226       0.634399482383056   -0.000146661935689999   -0.000164521088384308   -0.000146661935689999   -0.000164521088384308      -0.763075362422226       0.634399482383056
                 11446.8       -0.76202131025703       0.635607116783914   -0.000148110483391651   -0.000165593071667642   -0.000148110483391651   -0.000165593071667642       -0.76202131025703       0.635607116783914
                   11447      -0.760960127948964       0.636818798551934   -0.000149575565232136   -0.000166672140213865   -0.000149575565232136   -0.000166672140213865      -0.760960127948964       0.636818798551934
                 11447.2       -0.75989175023174       0.638034542208426   -0.000151057388381256   -0.000167758319311458   -0.000151057388381256   -0.000167758319311458       -0.75989175023174       0.638034542208426
                 11447.4      -0.758816111081945       0.639254362246169   -0.000152556162656573   -0.000168851633527892   -0.000152556162656573   -0.000168851633527892      -0.758816111081945       0.639254362246169
                 11447.6      -0.757733143708372       0.640478273126583   -0.000154072100552156   -0.000169952106677342   -0.000154072100552156   -0.000169952106677342      -0.757733143708372       0.640478273126583
                 11447.8      -0.756642780541138       0.641706289276867   -0.000155605417267395   -0.000171059761787456   -0.000155605417267395   -0.000171059761787456      -0.756642780541138       0.641706289276867
                   11448      -0.755544953220715       0.642938425086931   -0.000157156330735659   -0.000172174621064978   -0.000157156330735659   -0.000172174621064978      -0.755544953220715       0.642938425086931
                 11448.2      -0.754439592586682        0.64417469490636   -0.000158725061653082   -0.000173296705860441   -0.000158725061653082   -0.000173296705860441      -0.754439592586682        0.64417469490636
                 11448.4      -0.753326628666357        0.64541511304119   -0.000160311833507187   -0.000174426036631694   -0.000160311833507187   -0.000174426036631694      -0.753326628666357        0.64541511304119
                 11448.6      -0.752205990663178       0.646659693750675   -0.000161916872605537   -0.000175562632906379   -0.000161916872605537   -0.000175562632906379      -0.752205990663178       0.646659693750675
                 11448.8      -0.751077606944963       0.647908451243855   -0.000163540408104182    -0.00017670651324319   -0.000163540408104182    -0.00017670651324319      -0.751077606944963       0.647908451243855
                   11449      -0.749941405031898       0.649161399676119   -0.000165182672036106   -0.000177857695192033   -0.000165182672036106   -0.000177857695192033      -0.749941405031898       0.649161399676119
                 11449.2      -0.748797311584382       0.650418553145587   -0.000166843899339439   -0.000179016195252911   -0.000166843899339439   -0.000179016195252911      -0.748797311584382       0.650418553145587
                 11449.4      -0.747645252390615       0.651679925689452   -0.000168524327885588   -0.000180182028833625   -0.000168524327885588   -0.000180182028833625      -0.747645252390615       0.651679925689452
                 11449.6      -0.746485152354015       0.652945531280155   -0.000170224198507104   -0.000181355210206152   -0.000170224198507104   -0.000181355210206152      -0.746485152354015       0.652945531280155
                 11449.8      -0.745316935480418       0.654215383821464   -0.000171943755025347   -0.000182535752461717   -0.000171943755025347   -0.000182535752461717      -0.745316935480418       0.654215383821464
                   11450      -0.744140524865016       0.655489497144473   -0.000173683244277946    -0.00018372366746456   -0.000173683244277946    -0.00018372366746456      -0.744140524865016       0.655489497144473
                 11450.2      -0.742955842679135       0.656767885003415   -0.000175442916145895   -0.000184918965804251   -0.000175442916145895   -0.000184918965804251      -0.742955842679135       0.656767885003415
                 11450.4      -0.741762810156753       0.658050561071392   -0.000177223023580367   -0.000186121656746617   -0.000177223023580367   -0.000186121656746617      -0.741762810156753       0.658050561071392
                 11450.6      -0.740561347580765       0.659337538935995   -0.000179023822629211   -0.000187331748183226   -0.000179023822629211   -0.000187331748183226      -0.740561347580765       0.659337538935995
                 11450.8      -0.739351374269061       0.660628832094747   -0.000180845572462987    -0.00018854924657932   -0.000180845572462987    -0.00018854924657932      -0.739351374269061       0.660628832094747
                   11451      -0.738132808560321       0.661924453950446    -0.00018268853540062   -0.000189774156920239    -0.00018268853540062   -0.000189774156920239      -0.738132808560321       0.661924453950446
                 11451.2      -0.736905567799614       0.663224417806332    -0.00018455297693452   -0.000191006482656219    -0.00018455297693452   -0.000191006482656219      -0.736905567799614       0.663224417806332
                 11451.4      -0.735669568323669       0.664528736861179   -0.000186439165755293   -0.000192246225645631   -0.000186439165755293   -0.000192246225645631      -0.735669568323669       0.664528736861179
                 11451.6      -0.734424725445962       0.665837424204177   -0.000188347373775779   -0.000193493386096472   -0.000188347373775779   -0.000193493386096472      -0.734424725445962       0.665837424204177
                 11451.8      -0.733170953441515       0.667150492809683   -0.000190277876154522   -0.000194747962506169   -0.000190277876154522   -0.000194747962506169      -0.733170953441515       0.667150492809683
                   11452      -0.731908165531428       0.668467955531824    -0.00019223095131859   -0.000196009951599615    -0.00019223095131859   -0.000196009951599615      -0.731908165531428       0.668467955531824
                 11452.2      -0.730636273867156       0.669789825098924   -0.000194206880985633   -0.000197279348265378   -0.000194206880985633   -0.000197279348265378      -0.730636273867156       0.669789825098924
                 11452.4      -0.729355189514476       0.671116114107794    -0.00019620595018524   -0.000198556145490073    -0.00019620595018524   -0.000198556145490073      -0.729355189514476       0.671116114107794
                 11452.6      -0.728064822437195       0.672446835017842   -0.000198228447279421   -0.000199840334290808   -0.000198228447279421   -0.000199840334290808      -0.728064822437195       0.672446835017842
                 11452.8      -0.726765081480583       0.673782000144985   -0.000200274663982175   -0.000201131903645646   -0.000200274663982175   -0.000201131903645646      -0.726765081480583       0.673782000144985
                   11453      -0.725455874354496         0.6751216216554   -0.000202344895378133    -0.00020243084042207   -0.000202344895378133    -0.00020243084042207      -0.725455874354496         0.6751216216554
                 11453.2      -0.724137107616182        0.67646571155912   -0.000204439439940201   -0.000203737129303394   -0.000204439439940201   -0.000203737129303394      -0.724137107616182        0.67646571155912
                 11453.4      -0.722808686652825       0.677814281703377   -0.000206558599546029   -0.000205050752713005   -0.000206558599546029   -0.000205050752713005      -0.722808686652825       0.677814281703377
                 11453.6      -0.721470515663739       0.679167343765803   -0.000208702679493388   -0.000206371690736462   -0.000208702679493388   -0.000206371690736462      -0.721470515663739       0.679167343765803
                 11453.8      -0.720122497642237       0.680524909247436   -0.000210871988514286   -0.000207699921041366   -0.000210871988514286   -0.000207699921041366      -0.720122497642237       0.680524909247436
                   11454       -0.71876453435724       0.681886989465445   -0.000213066838787672   -0.000209035418794863   -0.000213066838787672   -0.000209035418794863       -0.71876453435724       0.681886989465445
                 11454.2       -0.71739652633449       0.683253595545713   -0.000215287545950799   -0.000210378156578856   -0.000215287545950799   -0.000210378156578856       -0.71739652633449       0.683253595545713
                 11454.4      -0.716018372837438       0.684624738415192   -0.000217534429109084   -0.000211728104302786   -0.000217534429109084   -0.000211728104302786      -0.716018372837438       0.684624738415192
                 11454.6      -0.714629971847797       0.686000428794009   -0.000219807810844328   -0.000213085229113917   -0.000219807810844328   -0.000213085229113917      -0.714629971847797       0.686000428794009
                 11454.8      -0.713231220045741       0.687380677187351   -0.000222108017221244   -0.000214449495305079   -0.000222108017221244   -0.000214449495305079      -0.713231220045741       0.687380677187351
                   11455      -0.711822012789737       0.688765493877121   -0.000224435377792196   -0.000215820864219811   -0.000224435377792196   -0.000215820864219811      -0.711822012789737       0.688765493877121
                 11455.2       -0.71040224409605       0.690154888913298   -0.000226790225599944   -0.000217199294154775   -0.000226790225599944   -0.000217199294154775       -0.71040224409605       0.690154888913298
                 11455.4      -0.708971806617782       0.691548872105131   -0.000229172897178516   -0.000218584740259522   -0.000229172897178516   -0.000218584740259522      -0.708971806617782       0.691548872105131
                 11455.6      -0.707530591623633       0.692947453011988    -0.00023158373255176   -0.000219977154433338    -0.00023158373255176   -0.000219977154433338      -0.707530591623633       0.692947453011988
                 11455.8      -0.706078488976197       0.694350640933982   -0.000234023075229736   -0.000221376485219267   -0.000234023075229736   -0.000221376485219267      -0.706078488976197       0.694350640933982
                   11456      -0.704615387109898       0.695758444902306   -0.000236491272202653    -0.00022278267769515   -0.000236491272202653    -0.00022278267769515      -0.704615387109898       0.695758444902306
                 11456.2      -0.703141173008512       0.697170873669267   -0.000238988673932242   -0.000224195673361617   -0.000238988673932242   -0.000224195673361617      -0.703141173008512       0.697170873669267
                 11456.4      -0.701655732182254       0.698587935698062    -0.00024151563434051   -0.000225615410027007    -0.00024151563434051   -0.000225615410027007      -0.701655732182254       0.698587935698062
                 11456.6      -0.700158948644473       0.700009639152208    -0.00024407251079558   -0.000227041821689058    -0.00024407251079558   -0.000227041821689058      -0.700158948644473       0.700009639152208
                 11456.8       -0.69865070488785        0.70143599188472   -0.000246659664094633   -0.000228474838413396   -0.000246659664094633   -0.000228474838413396       -0.69865070488785        0.70143599188472
                   11457      -0.697130881860275       0.702867001426866   -0.000249277458443508   -0.000229914386208568   -0.000249277458443508   -0.000229914386208568      -0.697130881860275       0.702867001426866
                 11457.2      -0.695599358940129       0.704302674976698   -0.000251926261433179   -0.000231360386897773   -0.000251926261433179   -0.000231360386897773      -0.695599358940129       0.704302674976698
                 11457.4      -0.694056013911197       0.705743019387184   -0.000254606444012586   -0.000232812757987019   -0.000254606444012586   -0.000232812757987019      -0.694056013911197       0.705743019387184
                 11457.6      -0.692500722937078       0.707188041153984   -0.000257318380457775   -0.000234271412529689   -0.000257318380457775   -0.000234271412529689      -0.692500722937078       0.707188041153984
                 11457.8      -0.690933360535107       0.708637746402905   -0.000260062448337189   -0.000235736258987465   -0.000260062448337189   -0.000235736258987465      -0.690933360535107       0.708637746402905
                   11458       -0.68935379954983       0.710092140876904   -0.000262839028472731   -0.000237207201087429   -0.000262839028472731   -0.000237207201087429       -0.68935379954983       0.710092140876904
                 11458.2      -0.687761911125904       0.711551229922799   -0.000265648504896641   -0.000238684137675389   -0.000265648504896641   -0.000238684137675389      -0.687761911125904       0.711551229922799
                 11458.4      -0.686157564680543       0.713015018477506   -0.000268491264803696   -0.000240166962565204   -0.000268491264803696   -0.000240166962565204      -0.686157564680543       0.713015018477506
                 11458.6       -0.68454062787538       0.714483511053938   -0.000271367698498733   -0.000241655564384144   -0.000271367698498733   -0.000241655564384144       -0.68454062787538       0.714483511053938
                 11458.8      -0.682910966587908       0.715956711726358   -0.000274278199338909    -0.00024314982641402   -0.000274278199338909    -0.00024314982641402      -0.682910966587908       0.715956711726358
                   11459      -0.681268444882197       0.717434624115474   -0.000277223163670978   -0.000244649626428261   -0.000277223163670978   -0.000244649626428261      -0.681268444882197       0.717434624115474
                 11459.2      -0.679612924979236       0.718917251372899   -0.000280202990762641   -0.000246154836524521   -0.000280202990762641   -0.000246154836524521      -0.679612924979236       0.718917251372899
                 11459.4      -0.677944267226561       0.720404596165291   -0.000283218082728304   -0.000247665322953018   -0.000283218082728304   -0.000247665322953018      -0.677944267226561       0.720404596165291
                 11459.6      -0.676262330067362       0.721896660657941   -0.000286268844448541   -0.000249180945940319   -0.000286268844448541   -0.000249180945940319      -0.676262330067362       0.721896660657941
                 11459.8      -0.674566970009011       0.723393446497868   -0.000289355683483056   -0.000250701559508522   -0.000289355683483056   -0.000250701559508522      -0.674566970009011       0.723393446497868
                   11460      -0.672858041590929       0.724894954796437   -0.000292479009976924   -0.000252227011289798   -0.000292479009976924   -0.000252227011289798      -0.672858041590929       0.724894954796437
                 11460.2      -0.671135397351853       0.726401186111434   -0.000295639236559645   -0.000253757142336131   -0.000295639236559645   -0.000253757142336131      -0.671135397351853       0.726401186111434
                 11460.4       -0.66939888779647       0.727912140428595    -0.00029883677823668   -0.000255291786924179    -0.00029883677823668   -0.000255291786924179       -0.66939888779647       0.727912140428595
                 11460.6      -0.667648361361407       0.729427817142578   -0.000302072052273099   -0.000256830772355146   -0.000302072052273099   -0.000256830772355146      -0.667648361361407       0.729427817142578
                 11460.8      -0.665883664380516       0.730948215037368   -0.000305345478069013   -0.000258373918749626   -0.000305345478069013   -0.000258373918749626      -0.665883664380516       0.730948215037368
                   11461       -0.66410464104953       0.732473332266069   -0.000308657477026246   -0.000259921038837225   -0.000308657477026246   -0.000259921038837225       -0.66410464104953       0.732473332266069
                 11461.2      -0.662311133389971       0.734003166330114   -0.000312008472405975   -0.000261471937740969   -0.000312008472405975   -0.000261471937740969      -0.662311133389971       0.734003166330114
                 11461.4      -0.660502981212395       0.735537714057786   -0.000315398889176722   -0.000263026412756303   -0.000315398889176722   -0.000263026412756303      -0.660502981212395       0.735537714057786
                 11461.6      -0.658680022078855       0.737076971582158   -0.000318829153852423   -0.000264584253124684   -0.000318829153852423   -0.000264584253124684      -0.658680022078855       0.737076971582158
                 11461.8      -0.656842091264687       0.738620934318276   -0.000322299694319845   -0.000266145239801569   -0.000322299694319845   -0.000266145239801569      -0.656842091264687       0.738620934318276
                   11462      -0.654989021719463       0.740169596939717   -0.000325810939655104    -0.00026770914521881   -0.000325810939655104    -0.00026770914521881      -0.654989021719463       0.740169596939717
                 11462.2      -0.653120644027247       0.741722953354359    -0.00032936331992846   -0.000269275733041262    -0.00032936331992846   -0.000269275733041262      -0.653120644027247       0.741722953354359
                 11462.4      -0.651236786365943       0.743280996679494   -0.000332957265997179   -0.000270844757917638   -0.000332957265997179   -0.000270844757917638      -0.651236786365943       0.743280996679494
                 11462.6       -0.64933727446597       0.744843719216062   -0.000336593209285429   -0.000272415965225365   -0.000336593209285429   -0.000272415965225365       -0.64933727446597       0.744843719216062
                 11462.8      -0.647421931567959       0.746411112422217     -0.0003402715815511   -0.000273989090809535     -0.0003402715815511   -0.000273989090809535      -0.647421931567959       0.746411112422217
                   11463       -0.64549057837974       0.747983166885942    -0.00034399281463837   -0.000275563860715684    -0.00034399281463837   -0.000275563860715684       -0.64549057837974       0.747983166885942
                 11463.2      -0.643543033032316       0.749559872296953   -0.000347757340215909   -0.000277139990916513   -0.000347757340215909   -0.000277139990916513      -0.643543033032316       0.749559872296953
                 11463.4      -0.641579111035088       0.751141217417602   -0.000351565589499451   -0.000278717187032284   -0.000351565589499451   -0.000278717187032284      -0.641579111035088       0.751141217417602
                 11463.6      -0.639598625230085       0.752727190052949   -0.000355417992958413   -0.000280295144044961   -0.000355417992958413   -0.000280295144044961      -0.639598625230085       0.752727190052949
                 11463.8      -0.637601385745199       0.754317777019954   -0.000359314980005818   -0.000281873546006057   -0.000359314980005818   -0.000281873546006057      -0.637601385745199       0.754317777019954
                   11464      -0.635587199946682       0.755912964115528   -0.000363256978670095   -0.000283452065737869   -0.000363256978670095   -0.000283452065737869      -0.635587199946682       0.755912964115528
                 11464.2      -0.633555872390444       0.757512736083774   -0.000367244415248831    -0.00028503036452842   -0.000367244415248831    -0.00028503036452842      -0.633555872390444       0.757512736083774
                 11464.4      -0.631507204772453       0.759117076582112    -0.00037127771394293   -0.000286608091819802    -0.00037127771394293   -0.000286608091819802      -0.631507204772453       0.759117076582112
                 11464.6      -0.629440995878113       0.760725968146345    -0.00037535729647047   -0.000288184884889947    -0.00037535729647047   -0.000288184884889947      -0.629440995878113       0.760725968146345
                 11464.8      -0.627357041530618       0.762339392154608   -0.000379483581659241   -0.000289760368527795   -0.000379483581659241   -0.000289760368527795      -0.627357041530618       0.762339392154608
                   11465      -0.625255134538145       0.763957328790254   -0.000383656985017198   -0.000291334154701922   -0.000383656985017198   -0.000291334154701922      -0.625255134538145       0.763957328790254
                 11465.2      -0.623135064640097       0.765579757003453   -0.000387877918279283   -0.000292905842222428   -0.000387877918279283   -0.000292905842222428      -0.623135064640097       0.765579757003453
                 11465.4       -0.62099661845207       0.767206654471691   -0.000392146788930132    -0.00029447501639632   -0.000392146788930132    -0.00029447501639632       -0.62099661845207       0.767206654471691
                 11465.6       -0.61883957940986       0.768837997558882   -0.000396463999700828   -0.000296041248676157   -0.000396463999700828   -0.000296041248676157       -0.61883957940986       0.768837997558882
                 11465.8      -0.616663727712039       0.770473761273365   -0.000400829948039366   -0.000297604096302277   -0.000400829948039366   -0.000297604096302277      -0.616663727712039       0.770473761273365
                   11466      -0.614468840261673       0.772113919224303   -0.000405245025552402   -0.000299163101938259   -0.000405245025552402   -0.000299163101938259      -0.614468840261673       0.772113919224303
                 11466.2      -0.612254690606475       0.773758443576952   -0.000409709617418288    -0.00030071779330012   -0.000409709617418288    -0.00030071779330012      -0.612254690606475       0.773758443576952
                 11466.4      -0.610021048877947       0.775407305006292   -0.000414224101768872   -0.000302267682778935   -0.000414224101768872   -0.000302267682778935      -0.610021048877947       0.775407305006292
                 11466.6      -0.607767681729122       0.777060472649272   -0.000418788849039339   -0.000303812267057214   -0.000418788849039339   -0.000303812267057214      -0.607767681729122       0.777060472649272
                 11466.8      -0.605494352271016       0.778717914055478   -0.000423404221284285   -0.000305351026719053   -0.000423404221284285   -0.000305351026719053      -0.605494352271016       0.778717914055478
                   11467      -0.603200820007738       0.780379595136219    -0.00042807057145852   -0.000306883425854222    -0.00042807057145852   -0.000306883425854222      -0.603200820007738       0.780379595136219