! This file was generated by CST Filter Designer 3D
! _________________________________________________
! Date:                         07.11.2025 16:01:26

# MHZ S RI R 50
!              Frequency                 Re(S11)                 Im(S11)                 Re(S21)                 Im(S21)                 Re(S12)                 Im(S12)                 Re(S22)                 Im(S22)
                   11440      -0.794235167350037       0.596737929879762   -0.000106950910187173   -0.000132960737123154   -0.000106950910187173   -0.000132960737123154      -0.794235167350037       0.596737929879762
                 11440.2      -0.793384274068287       0.597820058715601   -0.000107954209972298   -0.000133816060928456   -0.000107954209972298   -0.000133816060928456      -0.793384274068287       0.597820058715601
                 11440.4      -0.792528041614863       0.598905753056662    -0.00010896850328693   -0.000134677387849065    -0.00010896850328693   -0.000134677387849065      -0.792528041614863       0.598905753056662
                 11440.6      -0.791666424728084       0.599995027219932   -0.000109993925112226   -0.000135544753899595   -0.000109993925112226   -0.000135544753899595      -0.791666424728084       0.599995027219932
                 11440.8      -0.790799377660548        0.60108789555138   -0.000111030612201213   -0.000136418195024783   -0.000111030612201213   -0.000136418195024783      -0.790799377660548        0.60108789555138
                   11441      -0.789926854172798       0.602184372424985   -0.000112078703101824   -0.000137297747088312   -0.000112078703101824   -0.000137297747088312      -0.789926854172798       0.602184372424985
                 11441.2      -0.789048807526886       0.603284472241725   -0.000113138338180153   -0.000138183445861231   -0.000113138338180153   -0.000138183445861231      -0.789048807526886       0.603284472241725
                 11441.4      -0.788165190479855       0.604388209428505   -0.000114209659643938   -0.000139075327009969   -0.000114209659643938   -0.000139075327009969      -0.788165190479855       0.604388209428505
                 11441.6      -0.787275955277133       0.605495598437049    -0.00011529281156626   -0.000139973426083916    -0.00011529281156626   -0.000139973426083916      -0.787275955277133       0.605495598437049
                 11441.8       -0.78638105364576       0.606606653742817   -0.000116387939909554   -0.000140877778502644   -0.000116387939909554   -0.000140877778502644       -0.78638105364576       0.606606653742817
                   11442      -0.785480436787622       0.607721389843755   -0.000117495192549707   -0.000141788419542572   -0.000117495192549707   -0.000141788419542572      -0.785480436787622       0.607721389843755
                 11442.2      -0.784574055372454       0.608839821259163   -0.000118614719300553    -0.00014270538432332   -0.000118614719300553    -0.00014270538432332      -0.784574055372454       0.608839821259163
                 11442.4      -0.783661859530842       0.609961962528376   -0.000119746671938444    -0.00014362870779347   -0.000119746671938444    -0.00014362870779347      -0.783661859530842       0.609961962528376
                 11442.6      -0.782743798847039       0.611087828209516   -0.000120891204227157    -0.00014455842471594   -0.000120891204227157    -0.00014455842471594      -0.782743798847039       0.611087828209516
                 11442.8      -0.781819822351717       0.612217432878125   -0.000122048471942952   -0.000145494569652819   -0.000122048471942952   -0.000145494569652819      -0.781819822351717       0.612217432878125
                   11443      -0.780889878514572       0.613350791125805    -0.00012321863289989   -0.000146437176949712    -0.00012321863289989   -0.000146437176949712      -0.780889878514572       0.613350791125805
                 11443.2      -0.779953915236837       0.614487917558778   -0.000124401846975345   -0.000147386280719559   -0.000124401846975345   -0.000147386280719559      -0.779953915236837       0.614487917558778
                 11443.4      -0.779011879843671       0.615628826796407   -0.000125598276135718    -0.00014834191482591   -0.000125598276135718    -0.00014834191482591      -0.779011879843671       0.615628826796407
                 11443.6      -0.778063719076429       0.616773533469675   -0.000126808084462382   -0.000149304112865659   -0.000126808084462382   -0.000149304112865659      -0.778063719076429       0.616773533469675
                 11443.8      -0.777109379084778       0.617922052219637   -0.000128031438177839   -0.000150272908151222   -0.000128031438177839   -0.000150272908151222      -0.777109379084778       0.617922052219637
                   11444      -0.776148805418756       0.619074397695759   -0.000129268505672019   -0.000151248333692091   -0.000129268505672019   -0.000151248333692091      -0.776148805418756       0.619074397695759
                 11444.2      -0.775181943020632       0.620230584554271   -0.000130519457528841    -0.00015223042217583   -0.000130519457528841    -0.00015223042217583      -0.775181943020632       0.620230584554271
                 11444.4      -0.774208736216694       0.621390627456423   -0.000131784466552905   -0.000153219205948422   -0.000131784466552905   -0.000153219205948422      -0.774208736216694       0.621390627456423
                 11444.6      -0.773229128708857       0.622554541066713   -0.000133063707796411      -0.000154214716994   -0.000133063707796411      -0.000154214716994      -0.773229128708857       0.622554541066713
                 11444.8      -0.772243063566183       0.623722340051033   -0.000134357358586209   -0.000155216986913904   -0.000134357358586209   -0.000155216986913904      -0.772243063566183       0.623722340051033
                   11445      -0.771250483216234       0.624894039074776   -0.000135665598551051   -0.000156226046905082   -0.000135665598551051   -0.000156226046905082      -0.771250483216234       0.624894039074776
                 11445.2      -0.770251329436277       0.626069652800893   -0.000136988609649005   -0.000157241927737801   -0.000136988609649005   -0.000157241927737801      -0.770251329436277       0.626069652800893
                 11445.4      -0.769245543344406       0.627249195887834   -0.000138326576194965   -0.000158264659732607   -0.000138326576194965   -0.000158264659732607      -0.769245543344406       0.627249195887834
                 11445.6      -0.768233065390447       0.628432682987491   -0.000139679684888377     -0.0001592942727366   -0.000139679684888377     -0.0001592942727366      -0.768233065390447       0.628432682987491
                 11445.8      -0.767213835346744       0.629620128743066   -0.000141048124841082   -0.000160330796098949   -0.000141048124841082   -0.000160330796098949      -0.767213835346744       0.629620128743066
                   11446       -0.76618779229882       0.630811547786822   -0.000142432087605236   -0.000161374258645595   -0.000142432087605236   -0.000161374258645595       -0.76618779229882       0.630811547786822
                 11446.2      -0.765154874635869       0.632006954737797    -0.00014383176720138   -0.000162424688653177    -0.00014383176720138   -0.000162424688653177      -0.765154874635869       0.632006954737797
                 11446.4      -0.764115020041056       0.633206364199491   -0.000145247360146644   -0.000163482113822172   -0.000145247360146644   -0.000163482113822172      -0.764115020041056       0.633206364199491
                 11446.6      -0.763068165481739       0.634409790757381   -0.000146679065482957   -0.000164546561249117   -0.000146679065482957   -0.000164546561249117      -0.763068165481739       0.634409790757381
                 11446.8      -0.762014247199442       0.635617248976466    -0.00014812708480543   -0.000165618057398045    -0.00014812708480543   -0.000165618057398045      -0.762014247199442       0.635617248976466
                   11447      -0.760953200699737       0.636828753398652   -0.000149591622290717   -0.000166696628070961   -0.000149591622290717   -0.000166696628070961      -0.760953200699737       0.636828753398652
                 11447.2      -0.759884960741895       0.638044318540134   -0.000151072884725522   -0.000167782298377465   -0.000151072884725522   -0.000167782298377465      -0.759884960741895       0.638044318540134
                 11447.4      -0.758809461328426       0.639263958888618   -0.000152571081535031   -0.000168875092703363   -0.000152571081535031   -0.000168875092703363      -0.758809461328426       0.639263958888618
                 11447.6      -0.757726635694422       0.640487688900498   -0.000154086424811427    -0.00016997503467835   -0.000154086424811427    -0.00016997503467835      -0.757726635694422       0.640487688900498
                 11447.8      -0.756636416296674       0.641715522998002   -0.000155619129342458   -0.000171082147142727   -0.000155619129342458   -0.000171082147142727      -0.756636416296674       0.641715522998002
                   11448      -0.755538734802718       0.642947475566116   -0.000157169412639834   -0.000172196452112992   -0.000157169412639834   -0.000172196452112992      -0.755538734802718       0.642947475566116
                 11448.2      -0.754433522079586       0.644183560949557   -0.000158737494967759   -0.000173317970746496   -0.000158737494967759   -0.000173317970746496      -0.754433522079586       0.644183560949557
                 11448.4      -0.753320708182445       0.645423793449554   -0.000160323599371285   -0.000174446723304919   -0.000160323599371285   -0.000174446723304919      -0.753320708182445       0.645423793449554
                 11448.6      -0.752200222342985       0.646668187320612   -0.000161927951704685   -0.000175582729116719   -0.000161927951704685   -0.000175582729116719      -0.752200222342985       0.646668187320612
                 11448.8       -0.75107199295769       0.647916756767088    -0.00016355078065962   -0.000176726006538343    -0.00016355078065962   -0.000176726006538343       -0.75107199295769       0.647916756767088
                   11449      -0.749935947575824       0.649169515939756   -0.000165192317793288   -0.000177876572914345   -0.000165192317793288   -0.000177876572914345      -0.749935947575824       0.649169515939756
                 11449.2      -0.748792012887291       0.650426478932189   -0.000166852797556342   -0.000179034444536235   -0.000166852797556342   -0.000179034444536235      -0.748792012887291       0.650426478932189
                 11449.4      -0.747640114710224       0.651687659777109   -0.000168532457320709   -0.000180199636600134   -0.000168532457320709   -0.000180199636600134      -0.747640114710224       0.651687659777109
                 11449.6       -0.74648017797841       0.652953072442563   -0.000170231537407138   -0.000181372163163115   -0.000170231537407138   -0.000181372163163115       -0.74648017797841       0.652953072442563
                 11449.8      -0.745312126728499       0.654222730828005   -0.000171950281112541   -0.000182552037098227   -0.000171950281112541   -0.000182552037098227      -0.745312126728499       0.654222730828005
                   11450      -0.744135884086949       0.655496648760301   -0.000173688934737113   -0.000183739270048226   -0.000173688934737113   -0.000183739270048226      -0.744135884086949       0.655496648760301
                 11450.2      -0.742951372256809       0.656774839989544   -0.000175447747611082   -0.000184933872377845   -0.000175447747611082   -0.000184933872377845      -0.742951372256809       0.656774839989544
                 11450.4      -0.741758512504245       0.658057318184788    -0.00017722697212117    -0.00018613585312468    -0.00017722697212117    -0.00018613585312468      -0.741758512504245       0.658057318184788
                 11450.6      -0.740557225144814       0.659344096929673   -0.000179026863736717   -0.000187345219948631   -0.000179026863736717   -0.000187345219948631      -0.740557225144814       0.659344096929673
                 11450.8      -0.739347429529549       0.660635189717869   -0.000180847681035342   -0.000188561979079792   -0.000180847681035342   -0.000188561979079792      -0.739347429529549       0.660635189717869
                   11451      -0.738129044030761       0.661930609948431   -0.000182689685728211   -0.000189786135264837   -0.000182689685728211   -0.000189786135264837      -0.738129044030761       0.661930609948431
                 11451.2      -0.736901986027648        0.66323037092096   -0.000184553142684746    -0.00019101769171177   -0.000184553142684746    -0.00019101769171177      -0.736901986027648        0.66323037092096
                 11451.4      -0.735666171891568       0.664534485830709   -0.000186438319956934   -0.000192256650033124   -0.000186438319956934   -0.000192256650033124      -0.735666171891568       0.664534485830709
                 11451.6      -0.734421516971143       0.665842967763463   -0.000188345488802936   -0.000193503010187414   -0.000188345488802936   -0.000193503010187414      -0.734421516971143       0.665842967763463
                 11451.8      -0.733167935577062       0.667155829690296    -0.00019027492371012   -0.000194756770418893    -0.00019027492371012   -0.000194756770418893      -0.733167935577062       0.667155829690296
                   11452      -0.731905340966618       0.668473084462184   -0.000192226902417428   -0.000196017927195551   -0.000192226902417428   -0.000196017927195551      -0.731905340966618       0.668473084462184
                 11452.2      -0.730633645327998       0.669794744804431   -0.000194201705936977   -0.000197286475145279   -0.000194201705936977   -0.000197286475145279      -0.730633645327998       0.669794744804431
                 11452.4       -0.72935275976426       0.671120823310967   -0.000196199618574929   -0.000198562406990205   -0.000196199618574929   -0.000198562406990205       -0.72935275976426       0.671120823310967
                 11452.6      -0.728062594277047       0.672451332438465   -0.000198220927951486   -0.000199845713479093   -0.000198220927951486   -0.000199845713479093      -0.728062594277047       0.672451332438465
                 11452.8      -0.726763057750027       0.673786284500255   -0.000200265925019953    -0.00020113638331777   -0.000200265925019953    -0.00020113638331777      -0.726763057750027       0.673786284500255
                   11453      -0.725454057932033       0.675125691660083    -0.00020233490408485   -0.000202434403097545    -0.00020233490408485   -0.000202434403097545      -0.725454057932033       0.675125691660083
                 11453.2      -0.724135501419866       0.676469565925713   -0.000204428162819025    -0.00020373975722159   -0.000204428162819025    -0.00020373975722159      -0.724135501419866       0.676469565925713
                 11453.4      -0.722807293640863       0.677817919142275   -0.000206546002279563   -0.000205052427829134   -0.000206546002279563   -0.000205052427829134      -0.722807293640863       0.677817919142275
                 11453.6      -0.721469338835091       0.679170762985476   -0.000208688726922589   -0.000206372394717531   -0.000208688726922589   -0.000206372394717531      -0.721469338835091       0.679170762985476
                 11453.8      -0.720121540037227       0.680528108954605   -0.000210856644616803   -0.000207699635262086   -0.000210856644616803   -0.000207699635262086      -0.720121540037227       0.680528108954605
                   11454      -0.718763799058179       0.681889968365274   -0.000213050066655564    -0.00020903412433353   -0.000213050066655564    -0.00020903412433353      -0.718763799058179       0.681889968365274
                 11454.2      -0.717396016466312       0.683256352342001   -0.000215269307767638   -0.000210375834213187   -0.000215269307767638   -0.000210375834213187      -0.717396016466312       0.683256352342001
                 11454.4      -0.716018091568338       0.684627271810576   -0.000217514686126403   -0.000211724734505729   -0.000217514686126403   -0.000211724734505729      -0.716018091568338       0.684627271810576
                 11454.6      -0.714629922389888       0.686002737490171   -0.000219786523357406   -0.000213080792049423   -0.000219786523357406   -0.000213080792049423      -0.714629922389888       0.686002737490171
                 11454.8       -0.71323140565572       0.687382759885239   -0.000222085144544205   -0.000214443970823842   -0.000222085144544205   -0.000214443970823842       -0.71323140565572       0.687382759885239
                   11455      -0.711822436769558       0.688767349277168   -0.000224410878232397   -0.000215814231854979   -0.000224410878232397   -0.000215814231854979      -0.711822436769558       0.688767349277168
                 11455.2      -0.710402909793608       0.690156515715657   -0.000226764056431634   -0.000217191533117633   -0.000226764056431634   -0.000217191533117633      -0.710402909793608       0.690156515715657
                 11455.4      -0.708972717427618       0.691550269009918    -0.00022914501461574   -0.000218575829435143    -0.00022914501461574   -0.000218575829435143      -0.708972717427618       0.691550269009918
                 11455.6      -0.707531750987637       0.692948618719529   -0.000231554091720486   -0.000219967072376212   -0.000231554091720486   -0.000219967072376212      -0.707531750987637       0.692948618719529
                 11455.8      -0.706079900384335       0.694351574145072   -0.000233991630139177   -0.000221365210148903   -0.000233991630139177   -0.000221365210148903      -0.706079900384335       0.694351574145072
                   11456      -0.704617054100939       0.695759144318478   -0.000236457975715763   -0.000222770187491658   -0.000236457975715763   -0.000222770187491658      -0.704617054100939       0.695759144318478
                 11456.2      -0.703143099170778       0.697171337993067   -0.000238953477735359    -0.00022418194556127   -0.000238953477735359    -0.00022418194556127      -0.703143099170778       0.697171337993067
                 11456.4      -0.701657921154377       0.698588163633337   -0.000241478488912116   -0.000225600421817783   -0.000241478488912116   -0.000225600421817783      -0.701657921154377       0.698588163633337
                 11456.6      -0.700161404116163       0.700009629404402   -0.000244033365374147   -0.000227025549906173   -0.000244033365374147   -0.000227025549906173      -0.700161404116163       0.700009629404402
                 11456.8      -0.698653430600683       0.701435743161185   -0.000246618466645535   -0.000228457259534816   -0.000246618466645535   -0.000228457259534816      -0.698653430600683       0.701435743161185
                   11457      -0.697133881608483       0.702866512437173   -0.000249234155624959   -0.000229895476350517   -0.000249234155624959   -0.000229895476350517      -0.697133881608483       0.702866512437173
                 11457.2      -0.695602636571416        0.70430194443297   -0.000251880798561174   -0.000231340121810238   -0.000251880798561174   -0.000231340121810238      -0.695602636571416        0.70430194443297
                 11457.4      -0.694059573327554       0.705742046004434     -0.0002545587650248   -0.000232791113049243     -0.0002545587650248   -0.000232791113049243      -0.694059573327554       0.705742046004434
                 11457.6      -0.692504568095628       0.707186823650471   -0.000257268427876404    -0.00023424836274567   -0.000257268427876404    -0.00023424836274567      -0.692504568095628       0.707186823650471
                 11457.8      -0.690937495448951       0.708636283500492   -0.000260010163230683   -0.000235711778981463   -0.000260010163230683   -0.000235711778981463      -0.690937495448951       0.708636283500492
                   11458      -0.689358228288911       0.710090431301439   -0.000262784350416385   -0.000237181265099472   -0.000262784350416385   -0.000237181265099472      -0.689358228288911       0.710090431301439
                 11458.2      -0.687766637817889         0.7115492724045   -0.000265591371932015   -0.000238656719556801   -0.000265591371932015   -0.000238656719556801      -0.687766637817889         0.7115492724045
                 11458.4      -0.686162593511715       0.713012811751366   -0.000268431613396818   -0.000240138035774146   -0.000268431613396818   -0.000240138035774146      -0.686162593511715       0.713012811751366
                 11458.6      -0.684545963091547       0.714481053860136   -0.000271305463497041    -0.00024162510198118   -0.000271305463497041    -0.00024162510198118      -0.684545963091547       0.714481053860136
                 11458.8      -0.682916612495329       0.715954002810696   -0.000274213313926904   -0.000243117801057706   -0.000274213313926904   -0.000243117801057706      -0.682916612495329       0.715954002810696
                   11459      -0.681274405848518       0.717431662229816   -0.000277155559324526   -0.000244616010370774   -0.000277155559324526   -0.000244616010370774      -0.681274405848518       0.717431662229816
                 11459.2      -0.679619205434448       0.718914035275631   -0.000280132597201894   -0.000246119601607323   -0.000280132597201894   -0.000246119601607323      -0.679619205434448       0.718914035275631
                 11459.4      -0.677950871663969       0.720401124621794   -0.000283144827869191   -0.000247628440602568   -0.000283144827869191   -0.000247628440602568      -0.677950871663969       0.720401124621794
                 11459.6      -0.676269263044575       0.721892932441085    -0.00028619265435277   -0.000249142387163839    -0.00028619265435277   -0.000249142387163839      -0.676269263044575       0.721892932441085
                 11459.8      -0.674574236148943       0.723389460388513   -0.000289276482306589   -0.000250661294889817   -0.000289276482306589   -0.000250661294889817      -0.674574236148943       0.723389460388513
                   11460      -0.672865645582823       0.724890709583961   -0.000292396719916869   -0.000252185010985155   -0.000292396719916869   -0.000252185010985155      -0.672865645582823       0.724890709583961
                 11460.2      -0.671143343952314        0.72639668059427   -0.000295553777799505   -0.000253713376070282   -0.000295553777799505   -0.000253713376070282      -0.671143343952314        0.72639668059427
                 11460.4      -0.669407181830525       0.727907373414794   -0.000298748068889918   -0.000255246223986356   -0.000298748068889918   -0.000255246223986356      -0.669407181830525       0.727907373414794
                 11460.6      -0.667657007723575       0.729422787450379   -0.000301980008324938   -0.000256783381595232   -0.000301980008324938   -0.000256783381595232      -0.667657007723575       0.729422787450379
                 11460.8      -0.665892668035901       0.730942921495802   -0.000305250013316435   -0.000258324668574402   -0.000305250013316435   -0.000258324668574402      -0.665892668035901       0.730942921495802
                   11461      -0.664114007034927       0.732467773715571   -0.000308558503016107   -0.000259869897206739   -0.000308558503016107   -0.000259869897206739      -0.664114007034927       0.732467773715571
                 11461.2      -0.662320866814996       0.733997341623154   -0.000311905898371187    -0.00026141887216503   -0.000311905898371187    -0.00026141887216503      -0.662320866814996       0.733997341623154
                 11461.4      -0.660513087260631       0.735531622059534   -0.000315292621970422   -0.000262971390291107   -0.000315292621970422   -0.000262971390291107      -0.660513087260631       0.735531622059534
                 11461.6      -0.658690506009017       0.737070611171156   -0.000318719097880065     -0.0002645272403696   -0.000318719097880065     -0.0002645272403696      -0.658690506009017       0.737070611171156
                 11461.8      -0.656852958411809       0.738614304387141   -0.000322185751469143   -0.000266086202896077   -0.000322185751469143   -0.000266086202896077      -0.656852958411809       0.738614304387141
                   11462      -0.655000277496099       0.740162696395866   -0.000325693009223745   -0.000267648049839628   -0.000325693009223745   -0.000267648049839628      -0.655000277496099       0.740162696395866
                 11462.2        -0.6531322939247       0.741715781120751   -0.000329241298549512   -0.000269212544399658   -0.000329241298549512   -0.000269212544399658        -0.6531322939247       0.741715781120751
                 11462.4      -0.651248835955508       0.743273551695406   -0.000332831047562117   -0.000270779440756957   -0.000332831047562117   -0.000270779440756957      -0.651248835955508       0.743273551695406
                 11462.6      -0.649349729400204       0.744836000437883   -0.000336462684864679   -0.000272348483818776   -0.000336462684864679   -0.000272348483818776      -0.649349729400204       0.744836000437883
                 11462.8      -0.647434797581962       0.746403118824271   -0.000340136639312032   -0.000273919408958027   -0.000340136639312032   -0.000273919408958027      -0.647434797581962       0.746403118824271
                   11463       -0.64550386129247       0.747974897461337   -0.000343853339760634   -0.000275491941746321   -0.000343853339760634   -0.000275491941746321       -0.64550386129247       0.747974897461337
                 11463.2      -0.643556738747919       0.749551326058457   -0.000347613214804024   -0.000277065797680978   -0.000347613214804024   -0.000277065797680978      -0.643556738747919       0.749551326058457
                 11463.4      -0.641593245544245       0.751132393398549   -0.000351416692492548   -0.000278640681905719   -0.000351416692492548   -0.000278640681905719      -0.641593245544245       0.751132393398549
                 11463.6      -0.639613194611394       0.752718087308174   -0.000355264200037028   -0.000280216288925145   -0.000355264200037028   -0.000280216288925145      -0.639613194611394       0.752718087308174
                 11463.8      -0.637616396166569       0.754308394626756   -0.000359156163495628   -0.000281792302312926   -0.000359156163495628   -0.000281792302312926      -0.637616396166569       0.754308394626756
                   11464      -0.635602657666757       0.755903301174668   -0.000363093007442487   -0.000283368394413419   -0.000363093007442487   -0.000283368394413419      -0.635602657666757       0.755903301174668
                 11464.2      -0.633571783760047       0.757502791720503   -0.000367075154618182   -0.000284944226037016   -0.000367075154618182   -0.000284944226037016      -0.633571783760047       0.757502791720503
                 11464.4      -0.631523576236052       0.759106849947232   -0.000371103025560489   -0.000286519446148914   -0.000371103025560489   -0.000286519446148914      -0.631523576236052       0.759106849947232
                 11464.6      -0.629457833975318       0.760715458417305   -0.000375177038214704   -0.000288093691551353   -0.000375177038214704   -0.000288093691551353      -0.629457833975318       0.760715458417305
                 11464.8      -0.627374352897694       0.762328598536637   -0.000379297607522524   -0.000289666586559283   -0.000379297607522524   -0.000289666586559283      -0.627374352897694       0.762328598536637
                   11465       -0.62527292590956       0.763946250517529   -0.000383465144988699   -0.000291237742669518   -0.000383465144988699   -0.000291237742669518       -0.62527292590956       0.763946250517529
                 11465.2      -0.623153342850085       0.765568393340304   -0.000387680058223919   -0.000292806758223194   -0.000387680058223919   -0.000292806758223194      -0.623153342850085       0.765568393340304
                 11465.4      -0.621015390436226       0.767195004713846   -0.000391942750463437   -0.000294373218061756   -0.000391942750463437   -0.000294373218061756      -0.621015390436226       0.767195004713846
                 11465.6      -0.618858852206759       0.768826061034755   -0.000396253620059581   -0.000295936693176246   -0.000396253620059581   -0.000295936693176246      -0.618858852206759       0.768826061034755
                 11465.8      -0.616683508464884       0.770461537345378   -0.000400613059947819    -0.00029749674035023   -0.000400613059947819    -0.00029749674035023      -0.616683508464884       0.770461537345378
                   11466      -0.614489136219964       0.772101407290261   -0.000405021457083947   -0.000299052901795981   -0.000405021457083947   -0.000299052901795981      -0.614489136219964       0.772101407290261
                 11466.2      -0.612275509127712       0.773745643071453    -0.00040947919185239   -0.000300604704784473    -0.00040947919185239   -0.000300604704784473      -0.612275509127712       0.773745643071453
                 11466.4      -0.610042397429355       0.775394215402191   -0.000413986637443077   -0.000302151661268828   -0.000413986637443077   -0.000302151661268828      -0.610042397429355       0.775394215402191
                 11466.6      -0.607789567889407       0.777047093459185   -0.000418544159196184    -0.00030369326750159   -0.000418544159196184    -0.00030369326750159      -0.607789567889407       0.777047093459185
                 11466.8      -0.605516783732147        0.77870424483334   -0.000423152113912905   -0.000305229003645821   -0.000423152113912905   -0.000305229003645821      -0.605516783732147        0.77870424483334
                   11467      -0.603223804576762       0.780365635478888   -0.000427810849130751     -0.0003067583333802   -0.000427810849130751     -0.0003067583333802      -0.603223804576762       0.780365635478888