! This file was generated by CST Filter Designer 3D
! _________________________________________________
! Date:                         07.11.2025 16:01:55

# MHZ S RI R 50
!              Frequency                 Re(S11)                 Im(S11)                 Re(S21)                 Im(S21)                 Re(S12)                 Im(S12)                 Re(S22)                 Im(S22)
                   11440      -0.794228482222067         0.5967501910052   -0.000106562592919355   -0.000132488710490236   -0.000106562592919355   -0.000132488710490236      -0.794228482222067         0.5967501910052
                 11440.2      -0.793377842098643       0.597831980943837    -0.00010756141447352   -0.000133340148149949    -0.00010756141447352   -0.000133340148149949      -0.793377842098643       0.597831980943837
                 11440.4      -0.792521865986636       0.598917334270007   -0.000108571169911367   -0.000134197553216157   -0.000108571169911367   -0.000134197553216157      -0.792521865986636       0.598917334270007
                 11440.6      -0.791660508662927       0.600006265290272   -0.000109591993313853   -0.000135060961367484   -0.000109591993313853   -0.000135060961367484      -0.791660508662927       0.600006265290272
                 11440.8      -0.790793724419197       0.601098788340197   -0.000110624020518633   -0.000135930408210057   -0.000110624020518633   -0.000135930408210057      -0.790793724419197       0.601098788340197
                   11441      -0.789921467055583       0.602194917783378   -0.000111667389142802   -0.000136805929266341   -0.000111667389142802   -0.000136805929266341      -0.789921467055583       0.602194917783378
                 11441.2      -0.789043689874262       0.603294668010429   -0.000112722238605871   -0.000137687559963559   -0.000112722238605871   -0.000137687559963559      -0.789043689874262       0.603294668010429
                 11441.4       -0.78816034567294       0.604398053437922   -0.000113788710152952   -0.000138575335621712   -0.000113788710152952   -0.000138575335621712       -0.78816034567294       0.604398053437922
                 11441.6       -0.78727138673825       0.605505088507274   -0.000114866946878157   -0.000139469291441172   -0.000114866946878157   -0.000139469291441172       -0.78727138673825       0.605505088507274
                 11441.8      -0.786376764838984        0.60661578768367   -0.000115957093748299   -0.000140369462489908   -0.000115957093748299   -0.000140369462489908      -0.786376764838984        0.60661578768367
                   11442      -0.785476431219349       0.607730165454816   -0.000117059297626681   -0.000141275883690165   -0.000117059297626681   -0.000141275883690165      -0.785476431219349       0.607730165454816
                 11442.2      -0.784570336591958       0.608848236329806   -0.000118173707297269   -0.000142188589804824   -0.000118173707297269   -0.000142188589804824      -0.784570336591958       0.608848236329806
                 11442.4      -0.783658431130861       0.609970014837815   -0.000119300473488941   -0.000143107615423184   -0.000119300473488941   -0.000143107615423184      -0.783658431130861       0.609970014837815
                 11442.6      -0.782740664464357        0.61109551552684   -0.000120439748900051   -0.000144032994946346   -0.000120439748900051   -0.000144032994946346      -0.782740664464357        0.61109551552684
                 11442.8      -0.781816985667754       0.612224752962353   -0.000121591688223158   -0.000144964762572062   -0.000121591688223158   -0.000144964762572062      -0.781816985667754       0.612224752962353
                   11443      -0.780887343255992       0.613357741725929   -0.000122756448169991   -0.000145902952279103   -0.000122756448169991   -0.000145902952279103      -0.780887343255992       0.613357741725929
                 11443.2      -0.779951685176157        0.61449449641382   -0.000123934187496608   -0.000146847597811095   -0.000123934187496608   -0.000146847597811095      -0.779951685176157        0.61449449641382
                 11443.4      -0.779009958799885       0.615635031635475   -0.000125125067028749   -0.000147798732659816   -0.000125125067028749   -0.000147798732659816      -0.779009958799885       0.615635031635475
                 11443.6      -0.778062110915633       0.616779362012022    -0.00012632924968741   -0.000148756390047952    -0.00012632924968741   -0.000148756390047952      -0.778062110915633       0.616779362012022
                 11443.8      -0.777108087720816       0.617927502174728   -0.000127546900514625   -0.000149720602911301   -0.000127546900514625   -0.000149720602911301      -0.777108087720816       0.617927502174728
                   11444      -0.776147834813864       0.619079466763334   -0.000128778186699377   -0.000150691403880355   -0.000128778186699377   -0.000150691403880355      -0.776147834813864       0.619079466763334
                 11444.2      -0.775181297186104       0.620235270424424   -0.000130023277603768   -0.000151668825261322   -0.000130023277603768   -0.000151668825261322      -0.775181297186104       0.620235270424424
                 11444.4      -0.774208419213541       0.621394927809671   -0.000131282344789312   -0.000152652899016506   -0.000131282344789312   -0.000152652899016506      -0.774208419213541       0.621394927809671
                 11444.6      -0.773229144648498        0.62255845357408   -0.000132555562043439   -0.000153643656744074   -0.000132555562043439   -0.000153643656744074      -0.773229144648498        0.62255845357408
                 11444.8      -0.772243416611128       0.623725862374133    -0.00013384310540613   -0.000154641129657145    -0.00013384310540613   -0.000154641129657145      -0.772243416611128       0.623725862374133
                   11445      -0.771251177580785       0.624897168865904   -0.000135145153196738   -0.000155645348562228   -0.000135145153196738   -0.000155645348562228      -0.771251177580785       0.624897168865904
                 11445.2      -0.770252369387239       0.626072387703116   -0.000136461886040971    -0.00015665634383698   -0.000136461886040971    -0.00015665634383698      -0.770252369387239       0.626072387703116
                 11445.4       -0.76924693320181       0.627251533535092   -0.000137793486897951   -0.000157674145407202   -0.000137793486897951   -0.000157674145407202       -0.76924693320181       0.627251533535092
                 11445.6      -0.768234809528283       0.628434621004699   -0.000139140141087484   -0.000158698782723164   -0.000139140141087484   -0.000158698782723164      -0.768234809528283       0.628434621004699
                 11445.8      -0.767215938193701       0.629621664746222   -0.000140502036317441   -0.000159730284735168   -0.000140502036317441   -0.000159730284735168      -0.767215938193701       0.629621664746222
                   11446      -0.766190258339045       0.630812679383121   -0.000141879362711204   -0.000160768679868301   -0.000141879362711204   -0.000160768679868301      -0.766190258339045       0.630812679383121
                 11446.2      -0.765157708409734       0.632007679525751   -0.000143272312835244   -0.000161813995996418   -0.000143272312835244   -0.000161813995996418      -0.765157708409734       0.632007679525751
                 11446.4      -0.764118226145936       0.633206679769051   -0.000144681081726835   -0.000162866260415335   -0.000144681081726835   -0.000162866260415335      -0.764118226145936       0.633206679769051
                 11446.6      -0.763071748572799       0.634409694690068   -0.000146105866921755   -0.000163925499815119   -0.000146105866921755   -0.000163925499815119      -0.763071748572799       0.634409694690068
                 11446.8      -0.762018211990447       0.635616738845509   -0.000147546868482149   -0.000164991740251583   -0.000147546868482149   -0.000164991740251583      -0.762018211990447       0.635616738845509
                   11447       -0.76095755196386       0.636827826769128   -0.000149004289024368   -0.000166065007116828   -0.000149004289024368   -0.000166065007116828       -0.76095755196386       0.636827826769128
                 11447.2      -0.759889703312547       0.638042972969115   -0.000150478333746924   -0.000167145325108943   -0.000150478333746924   -0.000167145325108943      -0.759889703312547       0.638042972969115
                 11447.4        -0.7588146001001       0.639262191925328   -0.000151969210458381   -0.000168232718200689   -0.000151969210458381   -0.000168232718200689        -0.7588146001001       0.639262191925328
                 11447.6      -0.757732175623541       0.640485498086474   -0.000153477129605302   -0.000169327209607257   -0.000153477129605302   -0.000169327209607257      -0.757732175623541       0.640485498086474
                 11447.8      -0.756642362402462       0.641712905867258   -0.000155002304300233    -0.00017042882175307   -0.000155002304300233    -0.00017042882175307      -0.756642362402462       0.641712905867258
                   11448      -0.755545092168078       0.642944429645323   -0.000156544950349523   -0.000171537576237466   -0.000156544950349523   -0.000171537576237466      -0.755545092168078       0.642944429645323
                 11448.2      -0.754440295851993       0.644180083758223   -0.000158105286281243   -0.000172653493799437   -0.000158105286281243   -0.000172653493799437      -0.754440295851993       0.644180083758223
                 11448.4      -0.753327903574855       0.645419882500213    -0.00015968353337293    -0.00017377659428121    -0.00015968353337293    -0.00017377659428121      -0.753327903574855       0.645419882500213
                 11448.6      -0.752207844634758       0.646663840119021   -0.000161279915679327   -0.000174906896590787   -0.000161279915679327   -0.000174906896590787      -0.752207844634758       0.646663840119021
                 11448.8      -0.751080047495523       0.647911970812433   -0.000162894660059909   -0.000176044418663266   -0.000162894660059909   -0.000176044418663266      -0.751080047495523       0.647911970812433
                   11449      -0.749944439774705       0.649164288724861   -0.000164527996206375   -0.000177189177421072   -0.000164527996206375   -0.000177189177421072      -0.749944439774705       0.649164288724861
                 11449.2      -0.748800948231462       0.650420807943745   -0.000166180156669891   -0.000178341188732918   -0.000166180156669891   -0.000178341188732918      -0.748800948231462       0.650420807943745
                 11449.4      -0.747649498754163       0.651681542495895   -0.000167851376888221   -0.000179500467371582   -0.000167851376888221   -0.000179500467371582      -0.747649498754163       0.651681542495895
                 11449.6      -0.746490016347829       0.652946506343692   -0.000169541895212577    -0.00018066702697037   -0.000169541895212577    -0.00018066702697037      -0.746490016347829       0.652946506343692
                 11449.8      -0.745322425121353       0.654215713381167   -0.000171251952934234   -0.000181840879978283   -0.000171251952934234   -0.000181840879978283      -0.745322425121353       0.654215713381167
                   11450      -0.744146648274463       0.655489177430021   -0.000172981794310923   -0.000183022037613874   -0.000172981794310923   -0.000183022037613874      -0.744146648274463       0.655489177430021
                 11450.2      -0.742962608084525       0.656766912235449   -0.000174731666592823   -0.000184210509817671   -0.000174731666592823   -0.000184210509817671      -0.742962608084525       0.656766912235449
                 11450.4       -0.74177022589308       0.658048931461886   -0.000176501820048258   -0.000185406305203211   -0.000176501820048258   -0.000185406305203211       -0.74177022589308       0.658048931461886
                 11450.6      -0.740569422092139       0.659335248688634   -0.000178292507989034   -0.000186609431006635   -0.000178292507989034   -0.000186609431006635      -0.740569422092139       0.659335248688634
                 11450.8       -0.73936011611028       0.660625877405328   -0.000180103986795294   -0.000187819893034749   -0.000180103986795294   -0.000187819893034749       -0.73936011611028       0.660625877405328
                   11451      -0.738142226398473       0.661920831007293   -0.000181936515939964   -0.000189037695611578   -0.000181936515939964   -0.000189037695611578      -0.738142226398473       0.661920831007293
                 11451.2      -0.736915670415702       0.663220122790718   -0.000183790358012627   -0.000190262841523294   -0.000183790358012627   -0.000190262841523294      -0.736915670415702       0.663220122790718
                 11451.4       -0.73568036461426       0.664523765947778   -0.000185665778742963   -0.000191495331961606   -0.000185665778742963   -0.000191495331961606       -0.73568036461426       0.664523765947778
                 11451.6      -0.734436224424866       0.665831773561519   -0.000187563047023484   -0.000192735166465399   -0.000187563047023484   -0.000192735166465399      -0.734436224424866       0.665831773561519
                 11451.8      -0.733183164241491       0.667144158600633   -0.000189482434931664   -0.000193982342860705   -0.000189482434931664   -0.000193982342860705      -0.733183164241491       0.667144158600633
                   11452      -0.731921097405913       0.668460933914079   -0.000191424217751389   -0.000195236857198902   -0.000191424217751389   -0.000195236857198902      -0.731921097405913       0.668460933914079
                 11452.2      -0.730649936192025       0.669782112225524   -0.000193388673993609   -0.000196498703693108   -0.000193388673993609   -0.000196498703693108      -0.730649936192025       0.669782112225524
                 11452.4      -0.729369591789831       0.671107706127657   -0.000195376085416246   -0.000197767874652738   -0.000195376085416246   -0.000197767874652738      -0.729369591789831       0.671107706127657
                 11452.6      -0.728079974289181       0.672437728076312   -0.000197386737043208   -0.000199044360416147   -0.000197386737043208   -0.000199044360416147      -0.728079974289181       0.672437728076312
                 11452.8      -0.726780992663233       0.673772190384403   -0.000199420917182431   -0.000200328149281306   -0.000199420917182431   -0.000200328149281306      -0.726780992663233       0.673772190384403
                   11453      -0.725472554751606       0.675111105215697   -0.000201478917442967   -0.000201619227434479   -0.000201478917442967   -0.000201619227434479      -0.725472554751606       0.675111105215697
                 11453.2      -0.724154567243215       0.676454484578424   -0.000203561032751035   -0.000202917578876873   -0.000203561032751035   -0.000202917578876873      -0.724154567243215       0.676454484578424
                 11453.4      -0.722826935658852        0.67780234031865   -0.000205667561364848   -0.000204223185349113   -0.000205667561364848   -0.000204223185349113      -0.722826935658852        0.67780234031865
                 11453.6      -0.721489564333401       0.679154684113496   -0.000207798804888307   -0.000205536026253602   -0.000207798804888307   -0.000205536026253602      -0.721489564333401       0.679154684113496
                 11453.8      -0.720142356397748       0.680511527464166   -0.000209955068283399   -0.000206856078574654   -0.000209955068283399   -0.000206856078574654      -0.720142356397748       0.680511527464166
                   11454      -0.718785213760416       0.681872881688695   -0.000212136659881124   -0.000208183316796279   -0.000212136659881124   -0.000208183316796279      -0.718785213760416       0.681872881688695
                 11454.2      -0.717418037088816       0.683238757914561   -0.000214343891391048   -0.000209517712817685   -0.000214343891391048   -0.000209517712817685      -0.717418037088816       0.683238757914561
                 11454.4      -0.716040725790163       0.684609167071059   -0.000216577077909297   -0.000210859235866369   -0.000216577077909297   -0.000210859235866369      -0.716040725790163       0.684609167071059
                 11454.6      -0.714653177992069       0.685984119881434   -0.000218836537924861   -0.000212207852408724   -0.000218836537924861   -0.000212207852408724      -0.714653177992069       0.685984119881434
                 11454.8      -0.713255290522772         0.6873636268548   -0.000221122593324157   -0.000213563526058118   -0.000221122593324157   -0.000213563526058118      -0.713255290522772         0.6873636268548
                   11455      -0.711846958891006       0.688747698277807   -0.000223435569393757   -0.000214926217480391   -0.000223435569393757   -0.000214926217480391      -0.711846958891006       0.688747698277807
                 11455.2      -0.710428077265537       0.690136344206046   -0.000225775794821059    -0.00021629588429664   -0.000225775794821059    -0.00021629588429664      -0.710428077265537       0.690136344206046
                 11455.4      -0.708998538454248       0.691529574455261   -0.000228143601693027   -0.000217672480983371   -0.000228143601693027   -0.000217672480983371      -0.708998538454248       0.691529574455261
                 11455.6      -0.707558233882926       0.692927398592234   -0.000230539325492571   -0.000219055958769749   -0.000230539325492571   -0.000219055958769749      -0.707558233882926       0.692927398592234
                 11455.8      -0.706107053573606       0.694329825925435   -0.000232963305092684   -0.000220446265532045   -0.000232963305092684   -0.000220446265532045      -0.706107053573606       0.694329825925435
                   11456      -0.704644886122533       0.695736865495396   -0.000235415882748085   -0.000221843345685124   -0.000235415882748085   -0.000221843345685124      -0.704644886122533       0.695736865495396
                 11456.2      -0.703171618677736       0.697148526064772   -0.000237897404084218   -0.000223247140070889   -0.000237897404084218   -0.000223247140070889      -0.703171618677736       0.697148526064772
                 11456.4       -0.70168713691615       0.698564816108152   -0.000240408218083583   -0.000224657585843698   -0.000240408218083583   -0.000224657585843698       -0.70168713691615       0.698564816108152
                 11456.6      -0.700191325020343       0.699985743801525   -0.000242948677069069   -0.000226074616352551   -0.000242948677069069   -0.000226074616352551      -0.700191325020343       0.699985743801525
                 11456.8      -0.698684065654771       0.701411317011492   -0.000245519136684333   -0.000227498161020113   -0.000245519136684333   -0.000227498161020113      -0.698684065654771       0.701411317011492
                   11457      -0.697165239941681       0.702841543284055   -0.000248119955870767   -0.000228928145218298   -0.000248119955870767   -0.000228928145218298      -0.697165239941681       0.702841543284055
                 11457.2      -0.695634727436447       0.704276429833192   -0.000250751496841257    -0.00023036449014058   -0.000250751496841257    -0.00023036449014058      -0.695634727436447       0.704276429833192
                 11457.4      -0.694092406102518        0.70571598352902   -0.000253414125050226    -0.00023180711267075   -0.000253414125050226    -0.00023180711267075      -0.694092406102518        0.70571598352902
                 11457.6      -0.692538152285879       0.707160210885621   -0.000256108209159919   -0.000233255925248115   -0.000256108209159919   -0.000233255925248115      -0.692538152285879       0.707160210885621
                 11457.8      -0.690971840689013       0.708609118048526   -0.000258834121002739   -0.000234710835729078   -0.000258834121002739   -0.000234710835729078      -0.690971840689013       0.708609118048526
                   11458      -0.689393344344421       0.710062710781772   -0.000261592235539288    -0.00023617174724493   -0.000261592235539288    -0.00023617174724493      -0.689393344344421       0.710062710781772
                 11458.2      -0.687802534587571       0.711520994454647   -0.000264382930812124   -0.000237638558055885   -0.000264382930812124   -0.000237638558055885      -0.687802534587571       0.711520994454647
                 11458.4       -0.68619928102939       0.712983974027978   -0.000267206587894764   -0.000239111161401165   -0.000267206587894764   -0.000239111161401165       -0.68619928102939       0.712983974027978
                 11458.6      -0.684583451528173       0.714451654040076   -0.000270063590835911   -0.000240589445345133   -0.000270063590835911   -0.000240589445345133      -0.684583451528173       0.714451654040076
                 11458.8      -0.682954912161074       0.715924038592134   -0.000272954326598323    -0.00024207329261924   -0.000272954326598323    -0.00024207329261924      -0.682954912161074       0.715924038592134
                   11459      -0.681313527194869       0.717401131333374   -0.000275879184992607   -0.000243562580459956   -0.000275879184992607   -0.000243562580459956      -0.681313527194869       0.717401131333374
                 11459.2      -0.679659159056353       0.718882935445555    -0.00027883855860498   -0.000245057180442265    -0.00027883855860498   -0.000245057180442265      -0.679659159056353       0.718882935445555
                 11459.4      -0.677991668302015       0.720369453627169   -0.000281832842719341   -0.000246556958308929   -0.000281832842719341   -0.000246556958308929      -0.677991668302015       0.720369453627169
                 11459.6      -0.676310913587199       0.721860688077078   -0.000284862435232926   -0.000248061773795237   -0.000284862435232926   -0.000248061773795237      -0.676310913587199       0.721860688077078
                 11459.8      -0.674616751634683        0.72335664047767   -0.000287927736565372   -0.000249571480449204   -0.000287927736565372   -0.000249571480449204      -0.674616751634683        0.72335664047767
                   11460      -0.672909037202605       0.724857311977529   -0.000291029149560922   -0.000251085925447157   -0.000291029149560922   -0.000251085925447157      -0.672909037202605       0.724857311977529
                 11460.2      -0.671187623051774       0.726362703173573   -0.000294167079383346   -0.000252604949404579   -0.000294167079383346   -0.000252604949404579      -0.671187623051774       0.726362703173573
                 11460.4      -0.669452359912371       0.727872814092644   -0.000297341933403202   -0.000254128386182108   -0.000297341933403202   -0.000254128386182108      -0.669452359912371       0.727872814092644
                 11460.6      -0.667703096449987       0.729387644172537   -0.000300554121077099   -0.000255656062686614   -0.000300554121077099   -0.000255656062686614      -0.667703096449987       0.729387644172537
                 11460.8      -0.665939679230971       0.730907192242476   -0.000303804053818598   -0.000257187798667275   -0.000303804053818598   -0.000257187798667275      -0.665939679230971       0.730907192242476
                   11461      -0.664161952687137       0.732431456502971   -0.000307092144860227   -0.000258723406506513   -0.000307092144860227   -0.000258723406506513      -0.664161952687137       0.732431456502971
                 11461.2       -0.66236975907974       0.733960434505092   -0.000310418809106319   -0.000260262691005745   -0.000310418809106319   -0.000260262691005745       -0.66236975907974       0.733960434505092
                 11461.4      -0.660562938462773        0.73549412312907    -0.00031378446297606   -0.000261805449165803    -0.00031378446297606   -0.000261805449165803      -0.660562938462773        0.73549412312907
                 11461.6      -0.658741328645499       0.737032518562299   -0.000317189524236458   -0.000263351469962001   -0.000317189524236458   -0.000263351469962001      -0.658741328645499       0.737032518562299
                 11461.8       -0.65690476515429         0.7385756162766   -0.000320634411824511   -0.000264900534113651   -0.000320634411824511   -0.000264900534113651       -0.65690476515429         0.7385756162766
                   11462       -0.65505308119365       0.740123411004862   -0.000324119545658309    -0.00026645241384808   -0.000324119545658309    -0.00026645241384808       -0.65505308119365       0.740123411004862
                 11462.2      -0.653186107606531        0.74167589671688    -0.00032764534643625   -0.000268006872658888    -0.00032764534643625   -0.000268006872658888      -0.653186107606531        0.74167589671688
                 11462.4      -0.651303672833751       0.743233066594558   -0.000331212235424147   -0.000269563665058571   -0.000331212235424147   -0.000269563665058571      -0.651303672833751       0.743233066594558
                 11462.6      -0.649405602872729       0.744794913006228   -0.000334820634229196   -0.000271122536325175   -0.000334820634229196   -0.000271122536325175      -0.649405602872729       0.744794913006228
                 11462.8      -0.647491721235251       0.746361427480299    -0.00033847096456067   -0.000272683222243159    -0.00033847096456067   -0.000272683222243159      -0.647491721235251       0.746361427480299
                   11463      -0.645561848904529       0.747932600677969   -0.000342163647976188   -0.000274245448838148   -0.000342163647976188   -0.000274245448838148      -0.645561848904529       0.747932600677969
                 11463.2      -0.643615804291238       0.749508422365213   -0.000345899105613398    -0.00027580893210572   -0.000345899105613398    -0.00027580893210572      -0.643615804291238       0.749508422365213
                 11463.4      -0.641653403188815       0.751088881383793   -0.000349677757905841   -0.000277373377733954   -0.000349677757905841   -0.000277373377733954      -0.641653403188815       0.751088881383793
                 11463.6       -0.63967445872776       0.752673965621421   -0.000353500024282643   -0.000278938480819819   -0.000353500024282643   -0.000278938480819819       -0.63967445872776       0.752673965621421
                 11463.8      -0.637678781328942       0.754263661981056   -0.000357366322851281   -0.000280503925579365   -0.000357366322851281   -0.000280503925579365      -0.637678781328942       0.754263661981056
                   11464       -0.63566617865617       0.755857956349061   -0.000361277070062009   -0.000282069385051403   -0.000361277070062009   -0.000282069385051403       -0.63566617865617       0.755857956349061
                 11464.2      -0.633636455567569        0.75745683356255   -0.000365232680353992   -0.000283634520794997   -0.000365232680353992   -0.000283634520794997      -0.633636455567569        0.75745683356255
                 11464.4      -0.631589414066047        0.75906027737563     -0.0003692335657816    -0.00028519898258047     -0.0003692335657816    -0.00028519898258047      -0.631589414066047        0.75906027737563
                 11464.6      -0.629524853248758       0.760668270424576   -0.000373280135620139   -0.000286762408073948   -0.000373280135620139   -0.000286762408073948      -0.629524853248758       0.760668270424576
                 11464.8       -0.62744256925553       0.762280794191907   -0.000377372795950011   -0.000288324422515436   -0.000377372795950011   -0.000288324422515436       -0.62744256925553       0.762280794191907
                   11465      -0.625342355216139        0.76389782896939   -0.000381511949218496   -0.000289884638390458   -0.000381511949218496   -0.000289884638390458      -0.625342355216139        0.76389782896939
                 11465.2       -0.62322400119663       0.765519353819765   -0.000385697993777632   -0.000291442655095109   -0.000385697993777632   -0.000291442655095109       -0.62322400119663       0.765519353819765
                 11465.4      -0.621087294144364       0.767145346537382   -0.000389931323397672   -0.000292998058594732   -0.000389931323397672   -0.000292998058594732      -0.621087294144364       0.767145346537382
                 11465.6      -0.618932017832109       0.768775783607438   -0.000394212326754284   -0.000294550421075998   -0.000394212326754284   -0.000294550421075998      -0.618932017832109       0.768775783607438
                 11465.8      -0.616757952800702       0.770410640164125   -0.000398541386889141   -0.000296099300592728   -0.000398541386889141   -0.000296099300592728      -0.616757952800702       0.770410640164125
                   11466      -0.614564876300847       0.772049889947164   -0.000402918880641464   -0.000297644240705098   -0.000402918880641464   -0.000297644240705098      -0.614564876300847       0.772049889947164
                 11466.2      -0.612352562233354       0.773693505257226   -0.000407345178050505   -0.000299184770112754   -0.000407345178050505   -0.000299184770112754      -0.612352562233354       0.773693505257226
                 11466.4       -0.61012078108837        0.77534145690972   -0.000411820641726433   -0.000300720402281512   -0.000411820641726433   -0.000300720402281512       -0.61012078108837        0.77534145690972
                 11466.6      -0.607869299883206       0.776993714187187   -0.000416345626188894   -0.000302250635064009   -0.000416345626188894   -0.000302250635064009      -0.607869299883206       0.776993714187187
                 11466.8      -0.605597882098882       0.778650244790145   -0.000420920477171413   -0.000303774950314311   -0.000420920477171413   -0.000303774950314311      -0.605597882098882       0.778650244790145
                   11467      -0.603306287615319       0.780311014786327   -0.000425545530890121   -0.000305292813496647   -0.000425545530890121   -0.000305292813496647      -0.603306287615319       0.780311014786327