! This file was generated by CST Filter Designer 3D
! _________________________________________________
! Date:                         07.11.2025 16:02:17

# MHZ S RI R 50
!              Frequency                 Re(S11)                 Im(S11)                 Re(S21)                 Im(S21)                 Re(S12)                 Im(S12)                 Re(S22)                 Im(S22)
                   11440      -0.794282902408873       0.596677366897586   -0.000106331819846917   -0.000132223052934264   -0.000106331819846917   -0.000132223052934264      -0.794282902408873       0.596677366897586
                 11440.2       -0.79343232681803       0.597759270209449   -0.000107329455714517   -0.000133073902133485   -0.000107329455714517   -0.000133073902133485       -0.79343232681803       0.597759270209449
                 11440.4      -0.792576414624929        0.59884473828563   -0.000108338029566147   -0.000133930731654962   -0.000108338029566147   -0.000133930731654962      -0.792576414624929        0.59884473828563
                 11440.6      -0.791715120592585       0.599933785444675      -0.000109357675886   -0.000134793577593836      -0.000109357675886   -0.000134793577593836      -0.791715120592585       0.599933785444675
                 11440.8      -0.790848398998567       0.601026426034224   -0.000110388530928817   -0.000135662475982563   -0.000110388530928817   -0.000135662475982563      -0.790848398998567       0.601026426034224
                   11441      -0.789976203628659       0.602122674430049   -0.000111430732743076   -0.000136537462779957   -0.000111430732743076   -0.000136537462779957      -0.789976203628659       0.602122674430049
                 11441.2      -0.789098487770434       0.603222545035039   -0.000112484421194394   -0.000137418573859844   -0.000112484421194394   -0.000137418573859844      -0.789098487770434       0.603222545035039
                 11441.4      -0.788215204206736       0.604326052278137   -0.000113549737989172   -0.000138305844999305   -0.000113549737989172   -0.000138305844999305      -0.788215204206736       0.604326052278137
                 11441.6      -0.787326305209078        0.60543321061323   -0.000114626826698462   -0.000139199311866503   -0.000114626826698462   -0.000139199311866503      -0.787326305209078        0.60543321061323
                 11441.8      -0.786431742530871       0.606544034518075   -0.000115715832782152   -0.000140099010008153   -0.000115715832782152   -0.000140099010008153      -0.786431742530871       0.606544034518075
                   11442      -0.785531467400667       0.607658538493047   -0.000116816903613249   -0.000141004974836438   -0.000116816903613249   -0.000141004974836438      -0.785531467400667       0.607658538493047
                 11442.2      -0.784625430515156       0.608776737060012   -0.000117930188502571   -0.000141917241615627   -0.000117930188502571   -0.000141917241615627      -0.784625430515156       0.608776737060012
                 11442.4      -0.783713582032182       0.609898644761012   -0.000119055838723517   -0.000142835845448106   -0.000119055838723517   -0.000142835845448106      -0.783713582032182       0.609898644761012
                 11442.6      -0.782795871563555       0.611024276157021   -0.000120194007537189   -0.000143760821260025   -0.000120194007537189   -0.000143760821260025      -0.782795871563555       0.611024276157021
                 11442.8      -0.781872248167806       0.612153645826579   -0.000121344850217673   -0.000144692203786416   -0.000121344850217673   -0.000144692203786416      -0.781872248167806       0.612153645826579
                   11443      -0.780942660342806       0.613286768364441   -0.000122508524077593   -0.000145630027555828   -0.000122508524077593   -0.000145630027555828      -0.780942660342806       0.613286768364441
                 11443.2      -0.780007056018267       0.614423658380133   -0.000123685188493861   -0.000146574326874448   -0.000123685188493861   -0.000146574326874448      -0.780007056018267       0.614423658380133
                 11443.4       -0.77906538254815       0.615564330496482    -0.00012487500493366   -0.000147525135809675    -0.00012487500493366   -0.000147525135809675       -0.77906538254815       0.615564330496482
                 11443.6      -0.778117586702927       0.616708799348102   -0.000126078136980643   -0.000148482488173173   -0.000126078136980643   -0.000148482488173173      -0.778117586702927       0.616708799348102
                 11443.8      -0.777163614661708        0.61785707957984    -0.00012729475036138    -0.00014944641750337    -0.00012729475036138    -0.00014944641750337      -0.777163614661708        0.61785707957984
                   11444      -0.776203412004299       0.619009185845128   -0.000128525012971947    -0.00015041695704734   -0.000128525012971947    -0.00015041695704734      -0.776203412004299       0.619009185845128
                 11444.2      -0.775236923703073       0.620165132804337   -0.000129769094904795   -0.000151394139742142   -0.000129769094904795   -0.000151394139742142      -0.775236923703073       0.620165132804337
                 11444.4      -0.774264094114749       0.621324935123038   -0.000131027168475762   -0.000152377998195508   -0.000131027168475762   -0.000152377998195508      -0.774264094114749       0.621324935123038
                 11444.6      -0.773284866972023       0.622488607470232   -0.000132299408251329   -0.000153368564665939   -0.000132299408251329   -0.000153368564665939      -0.773284866972023       0.622488607470232
                 11444.8      -0.772299185375072       0.623656164516504   -0.000133585991076018   -0.000154365871042126   -0.000133585991076018   -0.000154365871042126      -0.772299185375072       0.623656164516504
                   11445      -0.771306991782924       0.624827620932133   -0.000134887096100011   -0.000155369948821719   -0.000134887096100011   -0.000155369948821719      -0.771306991782924       0.624827620932133
                 11445.2      -0.770308228004664       0.626002991385152   -0.000136202904806947   -0.000156380829089435   -0.000136202904806947   -0.000156380829089435      -0.770308228004664       0.626002991385152
                 11445.4      -0.769302835190556       0.627182290539297   -0.000137533601041829   -0.000157398542494404   -0.000137533601041829   -0.000157398542494404      -0.769302835190556       0.627182290539297
                 11445.6      -0.768290753822959       0.628365533051954   -0.000138879371039166   -0.000158423119226855   -0.000138879371039166   -0.000158423119226855      -0.768290753822959       0.628365533051954
                 11445.8      -0.767271923707114       0.629552733572028   -0.000140240403451254   -0.000159454588994046   -0.000140240403451254   -0.000159454588994046      -0.767271923707114       0.629552733572028
                   11446      -0.766246283961806       0.630743906737705   -0.000141616889376549    -0.00016049298099539   -0.000141616889376549    -0.00016049298099539      -0.766246283961806       0.630743906737705
                 11446.2      -0.765213773009866       0.631939067174172   -0.000143009022388204   -0.000161538323896822   -0.000143009022388204   -0.000161538323896822      -0.765213773009866       0.631939067174172
                 11446.4      -0.764174328568474       0.633138229491298   -0.000144416998562777   -0.000162590645804388   -0.000144416998562777   -0.000162590645804388      -0.764174328568474       0.633138229491298
                 11446.6       -0.76312788763938       0.634341408281171   -0.000145841016508947   -0.000163649974236925   -0.000145841016508947   -0.000163649974236925       -0.76312788763938       0.634341408281171
                 11446.8      -0.762074386498889       0.635548618115636   -0.000147281277396435    -0.00016471633609797   -0.000147281277396435    -0.00016471633609797      -0.762074386498889       0.635548618115636
                   11447      -0.761013760687745       0.636759873543691   -0.000148737984984935   -0.000165789757646721   -0.000148737984984935   -0.000165789757646721      -0.761013760687745       0.636759873543691
                 11447.2      -0.759945945000781       0.637975189088874   -0.000150211345653185   -0.000166870264468152   -0.000150211345653185   -0.000166870264468152      -0.759945945000781       0.637975189088874
                 11447.4      -0.758870873476475       0.639194579246492   -0.000151701568428028    -0.00016795788144214   -0.000151701568428028    -0.00016795788144214      -0.758870873476475       0.639194579246492
                 11447.6      -0.757788479386285       0.640418058480803   -0.000153208865013549   -0.000169052632711663   -0.000153208865013549   -0.000169052632711663      -0.757788479386285       0.640418058480803
                 11447.8      -0.756698695223781       0.641645641222167   -0.000154733449820303   -0.000170154541650053   -0.000154733449820303   -0.000170154541650053      -0.756698695223781       0.641645641222167
                   11448      -0.755601452693689        0.64287734186398   -0.000156275539994409    -0.00017126363082714   -0.000156275539994409    -0.00017126363082714      -0.755601452693689        0.64287734186398
                 11448.2       -0.75449668270065       0.644113174759653   -0.000157835355446792   -0.000172379921974462   -0.000157835355446792   -0.000172379921974462       -0.75449668270065       0.644113174759653
                 11448.4      -0.753384315337862       0.645353154219397   -0.000159413118882284   -0.000173503435949327   -0.000159413118882284   -0.000173503435949327      -0.753384315337862       0.645353154219397
                 11448.6      -0.752264279875476       0.646597294506995    -0.00016100905582878   -0.000174634192697842    -0.00016100905582878   -0.000174634192697842      -0.752264279875476       0.646597294506995
                 11448.8      -0.751136504748869       0.647845609836386   -0.000162623394666214   -0.000175772211216734   -0.000162623394666214   -0.000175772211216734      -0.751136504748869       0.647845609836386
                   11449      -0.750000917546634       0.649098114368238    -0.00016425636665555   -0.000176917509514093    -0.00016425636665555   -0.000176917509514093      -0.750000917546634       0.649098114368238
                 11449.2      -0.748857444998449       0.650354822206337    -0.00016590820596758   -0.000178070104568847    -0.00016590820596758   -0.000178070104568847      -0.748857444998449       0.650354822206337
                 11449.4      -0.747706012962667       0.651615747393942   -0.000167579149711661   -0.000179230012289075   -0.000167579149711661   -0.000179230012289075      -0.747706012962667       0.651615747393942
                 11449.6      -0.746546546413752       0.652880903909972   -0.000169269437964214   -0.000180397247469011   -0.000169269437964214   -0.000180397247469011      -0.746546546413752       0.652880903909972
                 11449.8      -0.745378969429483       0.654150305665098   -0.000170979313797055   -0.000181571823744757   -0.000170979313797055   -0.000181571823744757      -0.745378969429483       0.654150305665098
                   11450      -0.744203205177915       0.655423966497747   -0.000172709023305556   -0.000182753753548709   -0.000172709023305556   -0.000182753753548709      -0.744203205177915       0.655423966497747
                 11450.2       -0.74301917590416       0.656701900169938    -0.00017445881563646   -0.000183943048062547    -0.00017445881563646   -0.000183943048062547       -0.74301917590416       0.656701900169938
                 11450.4      -0.741826802916921       0.657984120363013   -0.000176228943015469   -0.000185139717168855   -0.000176228943015469   -0.000185139717168855      -0.741826802916921       0.657984120363013
                 11450.6      -0.740626006574774        0.65927064067328    -0.00017801966077453   -0.000186343769401316    -0.00017801966077453   -0.000186343769401316      -0.740626006574774        0.65927064067328
                 11450.8       -0.73941670627225        0.66056147460746    -0.00017983122737871    -0.00018755521189337    -0.00017983122737871    -0.00018755521189337       -0.73941670627225        0.66056147460746
                   11451      -0.738198820425653       0.661856635578054   -0.000181663904452722   -0.000188774050325394   -0.000181663904452722   -0.000188774050325394      -0.738198820425653       0.661856635578054
                 11451.2      -0.736972266458665       0.663156136898512   -0.000183517956806954   -0.000190000288870255   -0.000183517956806954   -0.000190000288870255      -0.736972266458665       0.663156136898512
                 11451.4      -0.735736960787633       0.664459991778349   -0.000185393652463139   -0.000191233930137342   -0.000185393652463139   -0.000191233930137342      -0.735736960787633       0.664459991778349
                 11451.6      -0.734492818806669       0.665768213318038   -0.000187291262679387   -0.000192474975114861   -0.000187291262679387   -0.000192474975114861      -0.734492818806669       0.665768213318038
                 11451.8      -0.733239754872468       0.667080814503772   -0.000189211061974699   -0.000193723423110459   -0.000189211061974699   -0.000193723423110459      -0.733239754872468       0.667080814503772
                   11452      -0.731977682288845        0.66839780820209   -0.000191153328152873   -0.000194979271690117   -0.000191153328152873   -0.000194979271690117      -0.731977682288845        0.66839780820209
                 11452.2      -0.730706513291033       0.669719207154313   -0.000193118342325705   -0.000196242516615213   -0.000193118342325705   -0.000196242516615213      -0.730706513291033       0.669719207154313
                 11452.4      -0.729426159029661       0.671045023970857   -0.000195106388935527   -0.000197513151777795   -0.000195106388935527   -0.000197513151777795      -0.729426159029661       0.671045023970857
                 11452.6      -0.728136529554481       0.672375271125354   -0.000197117755776936   -0.000198791169133928   -0.000197117755776936   -0.000198791169133928      -0.728136529554481       0.672375271125354
                 11452.8      -0.726837533797808        0.67370996094858   -0.000199152734017659   -0.000200076558635093   -0.000199152734017659   -0.000200076558635093      -0.726837533797808        0.67370996094858
                   11453      -0.725529079557667        0.67504910562223   -0.000201211618218541   -0.000201369308157606   -0.000201211618218541   -0.000201369308157606      -0.725529079557667        0.67504910562223
                 11453.2      -0.724211073480606       0.676392717172528   -0.000203294706352611   -0.000202669403430012   -0.000203294706352611   -0.000202669403430012      -0.724211073480606       0.676392717172528
                 11453.4      -0.722883421044264       0.677740807463585   -0.000205402299823022   -0.000203976827958322   -0.000205402299823022   -0.000203976827958322      -0.722883421044264       0.677740807463585
                 11453.6      -0.721546026539571       0.679093388190629   -0.000207534703479962    -0.00020529156294915   -0.000207534703479962    -0.00020529156294915      -0.721546026539571       0.679093388190629
                 11453.8      -0.720198793052639       0.680450470873019   -0.000209692225636391    -0.00020661358723062   -0.000209692225636391    -0.00020661358723062      -0.720198793052639       0.680450470873019
                   11454      -0.718841622446384       0.681812066846996   -0.000211875178082407   -0.000207942877170959   -0.000211875178082407   -0.000207942877170959      -0.718841622446384       0.681812066846996
                 11454.2      -0.717474415341762       0.683178187258287   -0.000214083876098368   -0.000209279406594801   -0.000214083876098368   -0.000209279406594801      -0.717474415341762       0.683178187258287
                 11454.4      -0.716097071098659       0.684548843054479   -0.000216318638466579     -0.0002106231466971   -0.000216318638466579     -0.0002106231466971      -0.716097071098659       0.684548843054479
                 11454.6      -0.714709487796477       0.685924044977147    -0.00021857978748141   -0.000211974065954572    -0.00021857978748141   -0.000211974065954572      -0.714709487796477       0.685924044977147
                 11454.8      -0.713311562214337       0.687303803553761   -0.000220867648957819   -0.000213332130034612   -0.000220867648957819   -0.000213332130034612      -0.713311562214337       0.687303803553761
                   11455      -0.711903189810935       0.688688129089364   -0.000223182552238159    -0.00021469730170165   -0.000223182552238159    -0.00021469730170165      -0.711903189810935       0.688688129089364
                 11455.2      -0.710484264704062       0.690077031657958   -0.000225524830197094   -0.000216069540720802   -0.000225524830197094   -0.000216069540720802      -0.710484264704062       0.690077031657958
                 11455.4      -0.709054679649659        0.69147052109372   -0.000227894819244716   -0.000217448803758895   -0.000227894819244716   -0.000217448803758895      -0.709054679649659        0.69147052109372
                 11455.6      -0.707614326020596       0.692868606981876   -0.000230292859327461   -0.000218835044282612   -0.000230292859327461   -0.000218835044282612      -0.707614326020596       0.692868606981876
                 11455.8      -0.706163093784991        0.69427129864935   -0.000232719293926946   -0.000220228212453829   -0.000232719293926946   -0.000220228212453829      -0.706163093784991        0.69427129864935
                   11456      -0.704700871484152       0.695678605155129   -0.000235174470056469   -0.000221628255022012   -0.000235174470056469   -0.000221628255022012      -0.704700871484152       0.695678605155129
                 11456.2      -0.703227546210129       0.697090535280322   -0.000237658738255056   -0.000223035115213584   -0.000237658738255056   -0.000223035115213584      -0.703227546210129       0.697090535280322
                 11456.4      -0.701743003582815       0.698507097517961   -0.000240172452578989   -0.000224448732618259   -0.000240172452578989   -0.000224448732618259      -0.701743003582815       0.698507097517961
                 11456.6      -0.700247127726656       0.699928300062463   -0.000242715970590549   -0.000225869043072174   -0.000242715970590549   -0.000225869043072174      -0.700247127726656       0.699928300062463
                 11456.8      -0.698739801246873       0.701354150798835   -0.000245289653343991   -0.000227295978537841   -0.000245289653343991   -0.000227295978537841      -0.698739801246873       0.701354150798835
                   11457      -0.697220905205355       0.702784657291454    -0.00024789386536829   -0.000228729466980694    -0.00024789386536829   -0.000228729466980694      -0.697220905205355       0.702784657291454
                 11457.2       -0.69569031909596       0.704219826772638   -0.000250528974646911   -0.000230169432242349   -0.000250528974646911   -0.000230169432242349       -0.69569031909596       0.704219826772638
                 11457.4      -0.694147920819445       0.705659666130801   -0.000253195352594065   -0.000231615793910325   -0.000253195352594065   -0.000231615793910325      -0.694147920819445       0.705659666130801
                 11457.6      -0.692593586657905       0.707104181898267   -0.000255893374027431   -0.000233068467184209   -0.000255893374027431   -0.000233068467184209      -0.692593586657905       0.707104181898267
                 11457.8      -0.691027191248703       0.708553380238749   -0.000258623417137163    -0.00023452736273821   -0.000258623417137163    -0.00023452736273821      -0.691027191248703       0.708553380238749
                   11458      -0.689448607557969       0.710007266934399   -0.000261385863450846    -0.00023599238657992   -0.000261385863450846    -0.00023599238657992      -0.689448607557969       0.710007266934399
                 11458.2      -0.687857706853522        0.71146584737254   -0.000264181097794415   -0.000237463439905333   -0.000264181097794415   -0.000237463439905333      -0.687857706853522        0.71146584737254
                 11458.4      -0.686254358677334       0.712929126531949   -0.000267009508248584   -0.000238940418949902   -0.000267009508248584   -0.000238940418949902      -0.686254358677334       0.712929126531949
                 11458.6      -0.684638430817415       0.714397108968786   -0.000269871486100761    -0.00024042321483565   -0.000269871486100761    -0.00024042321483565      -0.684638430817415       0.714397108968786
                 11458.8       -0.68300978927927        0.71586979880199   -0.000272767425791901   -0.000241911713414092   -0.000272767425791901   -0.000241911713414092       -0.68300978927927        0.71586979880199
                   11459      -0.681368298256638       0.717347199698406   -0.000275697724858558   -0.000243405795105141   -0.000275697724858558   -0.000243405795105141      -0.681368298256638       0.717347199698406
                 11459.2      -0.679713820101861       0.718829314857291   -0.000278662783869223   -0.000244905334731563   -0.000278662783869223   -0.000244905334731563      -0.679713820101861       0.718829314857291
                 11459.4      -0.678046215295521       0.720316146994492   -0.000281663006355274   -0.000246410201349209   -0.000281663006355274   -0.000246410201349209      -0.678046215295521       0.720316146994492
                 11459.6      -0.676365342415581       0.721807698326075   -0.000284698798735852   -0.000247920258072713   -0.000284698798735852   -0.000247920258072713      -0.676365342415581       0.721807698326075
                 11459.8      -0.674671058105923       0.723303970551464   -0.000287770570236468   -0.000249435361896631   -0.000287770570236468   -0.000249435361896631      -0.674671058105923       0.723303970551464
                   11460      -0.672963217044247       0.724804964836103   -0.000290878732801126   -0.000250955363511957   -0.000290878732801126   -0.000250955363511957      -0.672963217044247       0.724804964836103
                 11460.2      -0.671241671909348       0.726310681793577   -0.000294023700997508   -0.000252480107117879   -0.000294023700997508   -0.000252480107117879      -0.671241671909348       0.726310681793577
                 11460.4      -0.669506273347784        0.72782112146719   -0.000297205891914902   -0.000254009430228678   -0.000297205891914902   -0.000254009430228678      -0.669506273347784        0.72782112146719
                 11460.6      -0.667756869939877       0.729336283310973   -0.000300425725054507   -0.000255543163475675   -0.000300425725054507   -0.000255543163475675      -0.667756869939877       0.729336283310973
                 11460.8      -0.665993308165027       0.730856166170157   -0.000303683622211816   -0.000257081130404166   -0.000303683622211816   -0.000257081130404166      -0.665993308165027       0.730856166170157
                   11461      -0.664215432366386       0.732380768261003   -0.000306980007350519   -0.000258623147265175   -0.000306980007350519   -0.000258623147265175      -0.664215432366386       0.732380768261003
                 11461.2       -0.66242308471479       0.733910087150061   -0.000310315306467688    -0.00026016902280201   -0.000310315306467688    -0.00026016902280201       -0.66242308471479       0.733910087150061
                 11461.4      -0.660616105172025       0.735444119732757   -0.000313689947449639    -0.00026171855803144   -0.000313689947449639    -0.00026171855803144      -0.660616105172025       0.735444119732757
                 11461.6      -0.658794331453315       0.736982862211378   -0.000317104359918189   -0.000263271546019488   -0.000317104359918189   -0.000263271546019488      -0.658794331453315       0.736982862211378
                 11461.8      -0.656957598989127       0.738526310072312   -0.000320558975066627   -0.000264827771651635   -0.000320558975066627   -0.000264827771651635      -0.656957598989127       0.738526310072312
                   11462      -0.655105740886147       0.740074458062671   -0.000324054225485133   -0.000266387011397467   -0.000324054225485133   -0.000266387011397467      -0.655105740886147       0.740074458062671
                 11462.2      -0.653238587887559       0.741627300166112   -0.000327590544974861   -0.000267949033069528   -0.000327590544974861   -0.000267949033069528      -0.653238587887559       0.741627300166112
                 11462.4      -0.651355968332416       0.743184829578015   -0.000331168368350483   -0.000269513595576466   -0.000331168368350483   -0.000269513595576466      -0.651355968332416       0.743184829578015
                 11462.6      -0.649457708114336       0.744747038679783   -0.000334788131230173   -0.000271080448670164   -0.000334788131230173   -0.000271080448670164      -0.649457708114336       0.744747038679783
                 11462.8      -0.647543630639222       0.746313919012463   -0.000338450269812947      -0.000272649332687   -0.000338450269812947      -0.000272649332687      -0.647543630639222       0.746313919012463
                   11463      -0.645613556782272       0.747885461249441   -0.000342155220642203    -0.00027421997828293   -0.000342155220642203    -0.00027421997828293      -0.645613556782272       0.747885461249441
                 11463.2      -0.643667304843976       0.749461655168399   -0.000345903420355351   -0.000275792106162522   -0.000345903420355351   -0.000275792106162522      -0.643667304843976       0.749461655168399
                 11463.4      -0.641704690505357       0.751042489622303   -0.000349695305418314   -0.000277365426801669   -0.000349695305418314   -0.000277365426801669      -0.641704690505357       0.751042489622303
                 11463.6      -0.639725526782233       0.752627952509537   -0.000353531311844576   -0.000278939640164037   -0.000353531311844576   -0.000278939640164037      -0.639725526782233       0.752627952509537
                 11463.8      -0.637729623978468       0.754218030743171   -0.000357411874898061    -0.00028051443541122   -0.000357411874898061    -0.00028051443541122      -0.637729623978468       0.754218030743171
                   11464       -0.63571678963849       0.755812710219094   -0.000361337428778456    -0.00028208949060627   -0.000361337428778456    -0.00028208949060627       -0.63571678963849       0.755812710219094
                 11464.2      -0.633686828498614       0.757411975783323   -0.000365308406289043   -0.000283664472410919   -0.000365308406289043   -0.000283664472410919      -0.633686828498614       0.757411975783323
                 11464.4      -0.631639542437462       0.759015811198219   -0.000369325238485565   -0.000285239035776173   -0.000369325238485565   -0.000285239035776173      -0.631639542437462       0.759015811198219
                 11464.6      -0.629574730425361       0.760624199107629   -0.000373388354305395   -0.000286812823626317   -0.000373388354305395   -0.000286812823626317      -0.629574730425361       0.760624199107629
                 11464.8      -0.627492188472722       0.762237121000923   -0.000377498180176065   -0.000288385466536285   -0.000377498180176065   -0.000288385466536285      -0.627492188472722       0.762237121000923
                   11465       -0.62539170957725       0.763854557175968   -0.000381655139602375   -0.000289956582402435   -0.000381655139602375   -0.000289956582402435       -0.62539170957725       0.763854557175968
                 11465.2      -0.623273083670207       0.765476486700812   -0.000385859652730604   -0.000291525776106556   -0.000385859652730604   -0.000291525776106556      -0.623273083670207       0.765476486700812
                 11465.4      -0.621136097561405       0.767102887374285   -0.000390112135889341   -0.000293092639173302   -0.000390112135889341   -0.000293092639173302      -0.621136097561405       0.767102887374285
                 11465.6      -0.618980534883223       0.768733735685196    -0.00039441300110515   -0.000294656749420824    -0.00039441300110515   -0.000294656749420824      -0.618980534883223       0.768733735685196
                 11465.8      -0.616806176033212       0.770369006770433   -0.000398762655592755   -0.000296217670604924   -0.000398762655592755   -0.000296217670604924      -0.616806176033212       0.770369006770433
                   11466      -0.614612798115828       0.772008674371464   -0.000403161501217363   -0.000297774952056339   -0.000403161501217363   -0.000297774952056339      -0.614612798115828       0.772008674371464
                 11466.2      -0.612400174882599       0.773652710789706   -0.000407609933929166   -0.000299328128311692   -0.000407609933929166   -0.000299328128311692      -0.612400174882599       0.773652710789706
                 11466.4      -0.610168076671291       0.775301086840266   -0.000412108343167525   -0.000300876718737738   -0.000412108343167525   -0.000300876718737738      -0.610168076671291       0.775301086840266
                 11466.6      -0.607916270343667        0.77695377180429   -0.000416657111234172   -0.000302420227149261   -0.000416657111234172   -0.000302420227149261      -0.607916270343667        0.77695377180429
                 11466.8      -0.605644519221951       0.778610733379749   -0.000421256612633658   -0.000303958141420613   -0.000421256612633658   -0.000303958141420613      -0.605644519221951       0.778610733379749
                   11467      -0.603352583023955       0.780271937630639   -0.000425907213379582   -0.000305489933091037   -0.000425907213379582   -0.000305489933091037      -0.603352583023955       0.780271937630639