! This file was generated by CST Filter Designer 3D
! _________________________________________________
! Date:                         07.11.2025 16:02:44

# MHZ S RI R 50
!              Frequency                 Re(S11)                 Im(S11)                 Re(S21)                 Im(S21)                 Re(S12)                 Im(S12)                 Re(S22)                 Im(S22)
                   11440      -0.793870019625211       0.597210809851085   -0.000107178547001959   -0.000133132135705437   -0.000107178547001959   -0.000133132135705437      -0.793870019625211       0.597210809851085
                 11440.2      -0.793017472936336        0.59829368526156   -0.000108182722263422   -0.000133986980349239   -0.000108182722263422   -0.000133986980349239      -0.793017472936336        0.59829368526156
                 11440.4        -0.7921595757951       0.599380126996863   -0.000109197887559777   -0.000134847811750732   -0.000109197887559777   -0.000134847811750732        -0.7921595757951       0.599380126996863
                 11440.6      -0.791296282836636       0.600470149353528    -0.00011022417769257   -0.000135714665706734    -0.00011022417769257   -0.000135714665706734      -0.791296282836636       0.600470149353528
                 11440.8      -0.790427548209179       0.601563766656549   -0.000111261729231877   -0.000136587577942965   -0.000111261729231877   -0.000136587577942965      -0.790427548209179       0.601563766656549
                   11441        -0.7895533255677       0.602660993258402   -0.000112310680539308   -0.000137466584102929   -0.000112310680539308   -0.000137466584102929        -0.7895533255677       0.602660993258402
                 11441.2      -0.788673568067468       0.603761843538017   -0.000113371171791247    -0.00013835171973638   -0.000113371171791247    -0.00013835171973638      -0.788673568067468       0.603761843538017
                 11441.4      -0.787788228357505       0.604866331899701   -0.000114443345002311   -0.000139243020287397   -0.000114443345002311   -0.000139243020287397      -0.787788228357505       0.604866331899701
                 11441.6      -0.786897258573968       0.605974472772011   -0.000115527344049025   -0.000140140521082024   -0.000115527344049025   -0.000140140521082024      -0.786897258573968       0.605974472772011
                 11441.8      -0.786000610333355       0.607086280606667   -0.000116623314693821   -0.000141044257315558   -0.000116623314693821   -0.000141044257315558      -0.786000610333355       0.607086280606667
                   11442      -0.785098234725728        0.60820176987728   -0.000117731404609112   -0.000141954264039275   -0.000117731404609112   -0.000141954264039275      -0.785098234725728        0.60820176987728
                 11442.2      -0.784190082307689       0.609320955078218   -0.000118851763401782    -0.00014287057614686   -0.000118851763401782    -0.00014287057614686      -0.784190082307689       0.609320955078218
                 11442.4      -0.783276103095369       0.610443850723264   -0.000119984542637737   -0.000143793228360244   -0.000119984542637737   -0.000143793228360244      -0.783276103095369       0.610443850723264
                 11442.6      -0.782356246557228       0.611570471344359   -0.000121129895866807   -0.000144722255215051   -0.000121129895866807   -0.000144722255215051      -0.782356246557228       0.611570471344359
                 11442.8       -0.78143046160678       0.612700831490226   -0.000122287978647795   -0.000145657691045519   -0.000122287978647795   -0.000145657691045519       -0.78143046160678       0.612700831490226
                   11443      -0.780498696595186       0.613834945724986   -0.000123458948573794   -0.000146599569968933   -0.000123458948573794   -0.000146599569968933      -0.780498696595186       0.613834945724986
                 11443.2      -0.779560899303744       0.614972828626714   -0.000124642965297693   -0.000147547925869533   -0.000124642965297693   -0.000147547925869533      -0.779560899303744       0.614972828626714
                 11443.4      -0.778617016936263       0.616114494785938   -0.000125840190557897   -0.000148502792381886   -0.000125840190557897   -0.000148502792381886      -0.778617016936263       0.616114494785938
                 11443.6      -0.777666996111302       0.617259958804109   -0.000127050788204276   -0.000149464202873719   -0.000127050788204276   -0.000149464202873719      -0.777666996111302       0.617259958804109
                 11443.8      -0.776710782854279        0.61840923529203   -0.000128274924224331   -0.000150432190428208   -0.000128274924224331   -0.000150432190428208      -0.776710782854279        0.61840923529203
                   11444      -0.775748322589498       0.619562338868189   -0.000129512766769505   -0.000151406787825635   -0.000129512766769505   -0.000151406787825635      -0.775748322589498       0.619562338868189
                 11444.2      -0.774779560131998        0.62071928415709   -0.000130764486181761   -0.000152388027524503   -0.000130764486181761   -0.000152388027524503      -0.774779560131998        0.62071928415709
                 11444.4      -0.773804439679307       0.621880085787494   -0.000132030255020296   -0.000153375941642006   -0.000132030255020296   -0.000153375941642006      -0.773804439679307       0.621880085787494
                 11444.6      -0.772822904803043       0.623044758390629   -0.000133310248088484   -0.000154370561933886   -0.000133310248088484   -0.000154370561933886      -0.772822904803043       0.623044758390629
                 11444.8      -0.771834898440397       0.624213316598323   -0.000134604642460956   -0.000155371919773621   -0.000134604642460956   -0.000155371919773621      -0.771834898440397       0.624213316598323
                   11445      -0.770840362885473       0.625385775041088   -0.000135913617510891   -0.000156380046130967   -0.000135913617510891   -0.000156380046130967      -0.770840362885473       0.625385775041088
                 11445.2       -0.76983923978047       0.626562148346165   -0.000137237354937464   -0.000157394971549813   -0.000137237354937464   -0.000157394971549813       -0.76983923978047       0.626562148346165
                 11445.4      -0.768831470106773       0.627742451135442    -0.00013857603879341   -0.000158416726125292    -0.00013857603879341   -0.000158416726125292      -0.768831470106773       0.627742451135442
                 11445.6      -0.767816994175843       0.628926698023383   -0.000139929855512794   -0.000159445339480219   -0.000139929855512794   -0.000159445339480219      -0.767816994175843       0.628926698023383
                 11445.8      -0.766795751619974       0.630114903614868   -0.000141298993938922   -0.000160480840740767   -0.000141298993938922   -0.000160480840740767      -0.766795751619974       0.630114903614868
                   11446      -0.765767681382928       0.631307082502937    -0.00014268364535232   -0.000161523258511343    -0.00014268364535232   -0.000161523258511343      -0.765767681382928       0.631307082502937
                 11446.2      -0.764732721710407       0.632503249266476   -0.000144084003498876   -0.000162572620848696   -0.000144084003498876   -0.000162572620848696      -0.764732721710407       0.632503249266476
                 11446.4      -0.763690810140326        0.63370341846788    -0.00014550026461813   -0.000163628955235244    -0.00014550026461813   -0.000163628955235244      -0.763690810140326        0.63370341846788
                 11446.6      -0.762641883493005        0.63490760465056   -0.000146932627471567   -0.000164692288551496   -0.000146932627471567   -0.000164692288551496      -0.762641883493005        0.63490760465056
                 11446.8       -0.76158587786112       0.636115822336452   -0.000148381293371096   -0.000165762647047686   -0.000148381293371096   -0.000165762647047686       -0.76158587786112       0.636115822336452
                   11447      -0.760522728599559        0.63732808602339   -0.000149846466207523   -0.000166840056314468   -0.000149846466207523   -0.000166840056314468      -0.760522728599559        0.63732808602339
                 11447.2       -0.75945237031504        0.63854441018246    -0.00015132835247916   -0.000167924541252756    -0.00015132835247916   -0.000167924541252756       -0.75945237031504        0.63854441018246
                 11447.4      -0.758374736855632       0.639764809255201   -0.000152827161320394   -0.000169016126042575   -0.000152827161320394   -0.000169016126042575      -0.758374736855632       0.639764809255201
                 11447.6       -0.75728976130006       0.640989297650762   -0.000154343104530332   -0.000170114834110974   -0.000154343104530332   -0.000170114834110974       -0.75728976130006       0.640989297650762
                 11447.8      -0.756197375946803       0.642217889743015   -0.000155876396601509   -0.000171220688099003   -0.000155876396601509   -0.000171220688099003      -0.756197375946803       0.642217889743015
                   11448      -0.755097512303103       0.643450599867462    -0.00015742725474845   -0.000172333709827562    -0.00015742725474845   -0.000172333709827562      -0.755097512303103       0.643450599867462
                 11448.2      -0.753990101073691       0.644687442318182    -0.00015899589893637   -0.000173453920262327    -0.00015899589893637   -0.000173453920262327      -0.753990101073691       0.644687442318182
                 11448.4      -0.752875072149395       0.645928431344579   -0.000160582551909703   -0.000174581339477516   -0.000160582551909703   -0.000174581339477516      -0.752875072149395       0.645928431344579
                 11448.6      -0.751752354595497        0.64717358114813   -0.000162187439220678   -0.000175715986618623   -0.000162187439220678   -0.000175715986618623      -0.751752354595497        0.64717358114813
                 11448.8       -0.75062187663997       0.648422905878924   -0.000163810789257691   -0.000176857879863942   -0.000163810789257691   -0.000176857879863942       -0.75062187663997       0.648422905878924
                   11449      -0.749483565661438       0.649676419632205   -0.000165452833273683   -0.000178007036385003   -0.000165452833273683   -0.000178007036385003      -0.749483565661438       0.649676419632205
                 11449.2      -0.748337348176999       0.650934136444726   -0.000167113805414291   -0.000179163472305748   -0.000167113805414291   -0.000179163472305748      -0.748337348176999       0.650934136444726
                 11449.4      -0.747183149829783       0.652196070291065   -0.000168793942745926   -0.000180327202660535   -0.000168793942745926   -0.000180327202660535      -0.747183149829783       0.652196070291065
                 11449.6      -0.746020895376345       0.653462235079773   -0.000170493485283602   -0.000181498241350833   -0.000170493485283602   -0.000181498241350833      -0.746020895376345       0.653462235079773
                 11449.8      -0.744850508673837        0.65473264464943   -0.000172212676018555   -0.000182676601100621   -0.000172212676018555   -0.000182676601100621      -0.744850508673837        0.65473264464943
                   11450      -0.743671912666918       0.656007312764608   -0.000173951760945687     -0.0001838622934105   -0.000173951760945687     -0.0001838622934105      -0.743671912666918       0.656007312764608
                 11450.2      -0.742485029374505       0.657286253111667    -0.00017571098909064   -0.000185055328510371    -0.00017571098909064   -0.000185055328510371      -0.742485029374505       0.657286253111667
                 11450.4      -0.741289779876264       0.658569479294444   -0.000177490612536608   -0.000186255715310731   -0.000177490612536608   -0.000186255715310731      -0.741289779876264       0.658569479294444
                 11450.6      -0.740086084298841       0.659857004829852   -0.000179290886450845   -0.000187463461352549   -0.000179290886450845   -0.000187463461352549      -0.740086084298841       0.659857004829852
                 11450.8      -0.738873861801916       0.661148843143287   -0.000181112069110712   -0.000188678572755603   -0.000181112069110712   -0.000188678572755603      -0.738873861801916       0.661148843143287
                   11451      -0.737653030563964       0.662445007563944   -0.000182954421929376   -0.000189901054165336   -0.000182954421929376   -0.000189901054165336      -0.737653030563964       0.662445007563944
                 11451.2      -0.736423507767827       0.663745511319947   -0.000184818209480964   -0.000191130908698084   -0.000184818209480964   -0.000191130908698084      -0.736423507767827       0.663745511319947
                 11451.4       -0.73518520958595       0.665050367533414   -0.000186703699525347   -0.000192368137884781   -0.000186703699525347   -0.000192368137884781       -0.73518520958595       0.665050367533414
                 11451.6      -0.733938051165439       0.666359589215301   -0.000188611163032255   -0.000193612741612927   -0.000188611163032255   -0.000193612741612927      -0.733938051165439       0.666359589215301
                 11451.8      -0.732681946612827        0.66767318926012   -0.000190540874204843   -0.000194864718066888   -0.000190540874204843   -0.000194864718066888      -0.732681946612827        0.66767318926012
                   11452      -0.731416808978574       0.668991180440505   -0.000192493110502624   -0.000196124063666454   -0.000192493110502624   -0.000196124063666454      -0.731416808978574       0.668991180440505
                 11452.2      -0.730142550241306       0.670313575401607   -0.000194468152663666   -0.000197390773003579   -0.000194468152663666   -0.000197390773003579      -0.730142550241306       0.670313575401607
                 11452.4      -0.728859081291756       0.671640386655344   -0.000196466284726097    -0.00019866483877732   -0.000196466284726097    -0.00019866483877732      -0.728859081291756       0.671640386655344
                 11452.6      -0.727566311916432       0.672971626574474   -0.000198487794048772   -0.000199946251726866   -0.000198487794048772   -0.000199946251726866      -0.727566311916432       0.672971626574474
                 11452.8      -0.726264150781012       0.674307307386466   -0.000200532971331036   -0.000201235000562598   -0.000200532971331036   -0.000201235000562598      -0.726264150781012       0.674307307386466
                   11453      -0.724952505413441       0.675647441167214   -0.000202602110631594   -0.000202531071895191   -0.000202602110631594   -0.000202531071895191      -0.724952505413441       0.675647441167214
                 11453.2      -0.723631282186685       0.676992039834592   -0.000204695509386406   -0.000203834450162677   -0.000204695509386406   -0.000203834450162677      -0.723631282186685       0.676992039834592
                 11453.4      -0.722300386301255       0.678341115141752   -0.000206813468425434   -0.000205145117555362   -0.000206813468425434   -0.000205145117555362      -0.722300386301255       0.678341115141752
                 11453.6      -0.720959721767352       0.679694678670287   -0.000208956291988324   -0.000206463053938639   -0.000208956291988324   -0.000206463053938639      -0.720959721767352       0.679694678670287
                 11453.8      -0.719609191386698       0.681052741823187   -0.000211124287738872   -0.000207788236773585   -0.000211124287738872   -0.000207788236773585      -0.719609191386698       0.681052741823187
                   11454      -0.718248696734108       0.682415315817526   -0.000213317766778089   -0.000209120641035225   -0.000213317766778089   -0.000209120641035225      -0.718248696734108       0.682415315817526
                 11454.2      -0.716878138138666       0.683782411676994   -0.000215537043655978   -0.000210460239128538   -0.000215537043655978   -0.000210460239128538      -0.716878138138666       0.683782411676994
                 11454.4      -0.715497414664563       0.685154040224203   -0.000217782436381839   -0.000211807000802053   -0.000217782436381839   -0.000211807000802053      -0.715497414664563       0.685154040224203
                 11454.6      -0.714106424091618        0.68653021207275   -0.000220054266432965    -0.00021316089305899   -0.000220054266432965    -0.00021316089305899      -0.714106424091618        0.68653021207275
                 11454.8       -0.71270506289543       0.687910937619051   -0.000222352858761706   -0.000214521880065881   -0.000222352858761706   -0.000214521880065881       -0.71270506289543       0.687910937619051
                   11455      -0.711293226227165       0.689296227033939   -0.000224678541800764   -0.000215889923058632   -0.000224678541800764   -0.000215889923058632      -0.711293226227165       0.689296227033939
                 11455.2      -0.709870807893018       0.690686090253978   -0.000227031647466566   -0.000217264980245887   -0.000227031647466566   -0.000217264980245887      -0.709870807893018       0.690686090253978
                 11455.4      -0.708437700333215       0.692080536972609   -0.000229412511160783   -0.000218647006709774   -0.000229412511160783   -0.000218647006709774      -0.708437700333215       0.692080536972609
                 11455.6      -0.706993794600713       0.693479576630927   -0.000231821471769612    -0.00022003595430378   -0.000231821471769612    -0.00022003595430378      -0.706993794600713       0.693479576630927
                 11455.8      -0.705538980339466       0.694883218408267   -0.000234258871660923   -0.000221431771547821   -0.000234258871660923   -0.000221431771547821      -0.705538980339466       0.694883218408267
                   11456      -0.704073145762296       0.696291471212471    -0.00023672505667903    -0.00022283440352039    -0.00023672505667903    -0.00022283440352039      -0.704073145762296       0.696291471212471
                 11456.2      -0.702596177628384       0.697704343669868   -0.000239220376136951   -0.000224243791747676   -0.000239220376136951   -0.000224243791747676      -0.702596177628384       0.697704343669868
                 11456.4      -0.701107961220297       0.699121844114983   -0.000241745182806106   -0.000225659874089664   -0.000241745182806106   -0.000225659874089664      -0.701107961220297       0.699121844114983
                 11456.6      -0.699608380320633       0.700543980579913   -0.000244299832903175   -0.000227082584623048   -0.000244299832903175   -0.000227082584623048      -0.699608380320633       0.700543980579913
                 11456.8      -0.698097317188175       0.701970760783432   -0.000246884686074135   -0.000228511853520973   -0.000246884686074135   -0.000228511853520973      -0.698097317188175       0.701970760783432
                   11457      -0.696574652533706       0.703402192119683   -0.000249500105375015   -0.000229947606929386   -0.000249500105375015   -0.000229947606929386      -0.696574652533706       0.703402192119683
                 11457.2      -0.695040265495247       0.704838281646644   -0.000252146457249619   -0.000231389766840113   -0.000252146457249619   -0.000231389766840113      -0.695040265495247       0.704838281646644
                 11457.4      -0.693494033612907       0.706279036074185   -0.000254824111503681   -0.000232838250960418   -0.000254824111503681   -0.000232838250960418      -0.693494033612907       0.706279036074185
                 11457.6      -0.691935832803247       0.707724461751779    -0.00025753344127542   -0.000234292972579019    -0.00025753344127542   -0.000234292972579019      -0.691935832803247       0.707724461751779
                 11457.8      -0.690365537333138       0.709174564655877   -0.000260274823002333   -0.000235753840428508   -0.000260274823002333   -0.000235753840428508      -0.690365537333138       0.709174564655877
                   11458      -0.688783019793183       0.710629350376842   -0.000263048636383862   -0.000237220758544007   -0.000263048636383862   -0.000237220758544007      -0.688783019793183       0.710629350376842
                 11458.2      -0.687188151070554       0.712088824105573   -0.000265855264339976   -0.000238693626118093   -0.000265855264339976   -0.000238693626118093      -0.687188151070554       0.712088824105573
                 11458.4      -0.685580800321384       0.713552990619677   -0.000268695092965188   -0.000240172337351783   -0.000268695092965188   -0.000240172337351783      -0.685580800321384       0.713552990619677
                 11458.6      -0.683960834942565        0.71502185426927   -0.000271568511478002   -0.000241656781301609   -0.000271568511478002   -0.000241656781301609      -0.683960834942565        0.71502185426927
                 11458.8      -0.682328120543126       0.716495418962262   -0.000274475912165222   -0.000243146841722512   -0.000274475912165222   -0.000243146841722512      -0.682328120543126       0.716495418962262
                   11459      -0.680682520914887       0.717973688149351   -0.000277417690321403   -0.000244642396906759   -0.000277417690321403   -0.000244642396906759      -0.680682520914887       0.717973688149351
                 11459.2      -0.679023898002742       0.719456664808406   -0.000280394244182508   -0.000246143319518429   -0.000280394244182508   -0.000246143319518429      -0.679023898002742       0.719456664808406
                 11459.4      -0.677352111874211        0.72094435142851    -0.00028340597485412   -0.000247649476423715    -0.00028340597485412   -0.000247649476423715      -0.677352111874211        0.72094435142851
                 11459.6      -0.675667020688489       0.722436749993456    -0.00028645328623349   -0.000249160728516715    -0.00028645328623349   -0.000249160728516715      -0.675667020688489       0.722436749993456
                 11459.8        -0.6739684806649       0.723933861964746   -0.000289536584925261   -0.000250676930540698   -0.000289536584925261   -0.000250676930540698        -0.6739684806649       0.723933861964746
                   11460      -0.672256346050698       0.725435688264108   -0.000292656280150619   -0.000252197930904797   -0.000292656280150619   -0.000252197930904797      -0.672256346050698       0.725435688264108
                 11460.2       -0.67053046908826       0.726942229255475   -0.000295812783649435   -0.000253723571495958   -0.000295812783649435   -0.000253723571495958       -0.67053046908826       0.726942229255475
                 11460.4      -0.668790699981649       0.728453484726405   -0.000299006509575074   -0.000255253687486088   -0.000299006509575074   -0.000255253687486088      -0.668790699981649       0.728453484726405
                 11460.6      -0.667036886862528       0.729969453868945   -0.000302237874381502   -0.000256788107134286   -0.000302237874381502   -0.000256788107134286      -0.667036886862528       0.729969453868945
                 11460.8      -0.665268875755375        0.73149013525993   -0.000305507296702382   -0.000258326651584112   -0.000305507296702382   -0.000258326651584112      -0.665268875755375        0.73149013525993
                   11461      -0.663486510542054        0.73301552684066   -0.000308815197221619   -0.000259869134655717   -0.000308815197221619   -0.000259869134655717      -0.663486510542054        0.73301552684066
                 11461.2       -0.66168963292565       0.734545625895986   -0.000312161998535097   -0.000261415362632825   -0.000312161998535097   -0.000261415362632825       -0.66168963292565       0.734545625895986
                 11461.4      -0.659878082393632       0.736080429032726   -0.000315548125003011   -0.000262965134044394   -0.000315548125003011   -0.000262965134044394      -0.659878082393632       0.736080429032726
                 11461.6      -0.658051696180235       0.737619932157465   -0.000318974002592506   -0.000264518239440941   -0.000318974002592506   -0.000264518239440941      -0.658051696180235       0.737619932157465
                 11461.8      -0.656210309228162       0.739164130453625   -0.000322440058709943   -0.000266074461165347   -0.000322440058709943   -0.000266074461165347      -0.656210309228162       0.739164130453625
                   11462      -0.654353754149453       0.740713018357883   -0.000325946722022526   -0.000267633573118151   -0.000325946722022526   -0.000267633573118151      -0.654353754149453       0.740713018357883
                 11462.2       -0.65248186118565        0.74226658953581   -0.000329494422268502   -0.000269195340517132   -0.000329494422268502   -0.000269195340517132       -0.65248186118565        0.74226658953581
                 11462.4      -0.650594458167066       0.743824836856844   -0.000333083590055733   -0.000270759519651239   -0.000333083590055733   -0.000270759519651239      -0.650594458167066       0.743824836856844
                 11462.6      -0.648691370471359       0.745387752368389   -0.000336714656647609   -0.000272325857628584   -0.000336714656647609   -0.000272325857628584      -0.648691370471359       0.745387752368389
                 11462.8      -0.646772420981141       0.746955327269219   -0.000340388053736239   -0.000273894092118642   -0.000340388053736239   -0.000273894092118642      -0.646772420981141       0.746955327269219
                   11463      -0.644837430040874       0.748527551881958    -0.00034410421320173   -0.000275463951088337    -0.00034410421320173   -0.000275463951088337      -0.644837430040874       0.748527551881958
                 11463.2      -0.642886215412746        0.75010441562482   -0.000347863566857474   -0.000277035152532192   -0.000347863566857474   -0.000277035152532192      -0.642886215412746        0.75010441562482
                 11463.4      -0.640918592231794       0.751685906982354   -0.000351666546180206    -0.00027860740419621   -0.000351666546180206    -0.00027860740419621      -0.640918592231794       0.751685906982354
                 11463.6      -0.638934372960041       0.753272013475351   -0.000355513582024518   -0.000280180403295612   -0.000355513582024518   -0.000280180403295612      -0.638934372960041       0.753272013475351
                 11463.8      -0.636933367339625       0.754862721629866   -0.000359405104321094    -0.00028175383622636   -0.000359405104321094    -0.00028175383622636      -0.636933367339625       0.754862721629866
                   11464      -0.634915382345193       0.756458016945098   -0.000363341541757312    -0.00028332737827016   -0.000363341541757312    -0.00028332737827016      -0.634915382345193       0.756458016945098
                 11464.2      -0.632880222135094       0.758057883860443   -0.000367323321440241   -0.000284900693293266   -0.000367323321440241   -0.000284900693293266      -0.632880222135094       0.758057883860443
                 11464.4      -0.630827688001666       0.759662305721443   -0.000371350868540587   -0.000286473433438766   -0.000371350868540587   -0.000286473433438766      -0.630827688001666       0.759662305721443
                 11464.6      -0.628757578320511       0.761271264744651   -0.000375424605916833   -0.000288045238812391   -0.000375424605916833   -0.000288045238812391      -0.628757578320511       0.761271264744651
                 11464.8      -0.626669688498732       0.762884741981395   -0.000379544953718656   -0.000289615737161813   -0.000379544953718656   -0.000289615737161813      -0.626669688498732       0.762884741981395
                   11465      -0.624563810922009        0.76450271728045   -0.000383712328968817    -0.00029118454354948   -0.000383712328968817    -0.00029118454354948      -0.624563810922009        0.76450271728045
                 11465.2       -0.62243973490073       0.766125169249431   -0.000387927145122063   -0.000292751260018801   -0.000387927145122063   -0.000292751260018801       -0.62243973490073       0.766125169249431
                 11465.4      -0.620297246614834       0.767752075215082   -0.000392189811600555   -0.000294315475253919   -0.000392189811600555   -0.000294315475253919      -0.620297246614834       0.767752075215082
                 11465.6      -0.618136129057695       0.769383411182159   -0.000396500733304033   -0.000295876764232808   -0.000396500733304033   -0.000295876764232808      -0.618136129057695       0.769383411182159
                 11465.8       -0.61595616197858       0.771019151791197   -0.000400860310094416   -0.000297434687874054   -0.000400860310094416   -0.000297434687874054       -0.61595616197858       0.771019151791197
                   11466      -0.613757121824233       0.772659270274683   -0.000405268936252445   -0.000298988792676924   -0.000405268936252445   -0.000298988792676924      -0.613757121824233       0.772659270274683
                 11466.2      -0.611538781678898       0.774303738412066   -0.000409726999906418   -0.000300538610355262   -0.000409726999906418   -0.000300538610355262      -0.611538781678898       0.774303738412066
                 11466.4      -0.609300911203332        0.77595252648315   -0.000414234882430527   -0.000302083657464861   -0.000414234882430527   -0.000302083657464861      -0.609300911203332        0.77595252648315
                 11466.6      -0.607043276572412       0.777605603220071   -0.000418792957812128    -0.00030362343502466   -0.000418792957812128    -0.00030362343502466      -0.607043276572412       0.777605603220071
                 11466.8      -0.604765640411446       0.779262935757703   -0.000423401591986177   -0.000305157428131778   -0.000423401591986177   -0.000305157428131778      -0.604765640411446       0.779262935757703
                   11467      -0.602467761731144       0.780924489582461   -0.000428061142135377   -0.000306685105570518   -0.000428061142135377   -0.000306685105570518      -0.602467761731144       0.780924489582461