! This file was generated by CST Filter Designer 3D
! _________________________________________________
! Date:                         07.11.2025 16:03:08

# MHZ S RI R 50
!              Frequency                 Re(S11)                 Im(S11)                 Re(S21)                 Im(S21)                 Re(S12)                 Im(S12)                 Re(S22)                 Im(S22)
                   11440      -0.799124595835732        0.59032731767366   -0.000106961188689205   -0.000134891415889058   -0.000106961188689205   -0.000134891415889058      -0.799124595835732        0.59032731767366
                 11440.2      -0.798294183165408       0.591401308490517   -0.000107960291692859   -0.000135756592597032   -0.000107960291692859   -0.000135756592597032      -0.798294183165408       0.591401308490517
                 11440.4       -0.79745855963646       0.592478868482567   -0.000108970294427576   -0.000136627833980586   -0.000108970294427576   -0.000136627833980586       -0.79745855963646       0.592478868482567
                 11440.6      -0.796617681054324        0.59356001234831   -0.000109991330121946   -0.000137505176638945   -0.000109991330121946   -0.000137505176638945      -0.796617681054324        0.59356001234831
                 11440.8      -0.795771502749703       0.594644754822749   -0.000111023533745154   -0.000138388657112202   -0.000111023533745154   -0.000138388657112202      -0.795771502749703       0.594644754822749
                   11441      -0.794919979572363       0.595733110676567    -0.00011206704202949   -0.000139278311870431    -0.00011206704202949   -0.000139278311870431      -0.794919979572363       0.595733110676567
                 11441.2      -0.794063065884834       0.596825094715255   -0.000113121993493073    -0.00014017417730241   -0.000113121993493073    -0.00014017417730241      -0.794063065884834       0.596825094715255
                 11441.4      -0.793200715556031       0.597920721778196   -0.000114188528462787   -0.000141076289703944   -0.000114188528462787   -0.000141076289703944      -0.793200715556031       0.597920721778196
                 11441.6      -0.792332881954784         0.5990200067377   -0.000115266789097435   -0.000141984685265769   -0.000115266789097435   -0.000141984685265769      -0.792332881954784         0.5990200067377
                 11441.8      -0.791459517943203       0.600122964498084   -0.000116356919411191   -0.000142899400061099   -0.000116356919411191   -0.000142899400061099      -0.791459517943203       0.600122964498084
                   11442      -0.790580575870064       0.601229609994574   -0.000117459065297133   -0.000143820470032635   -0.000117459065297133   -0.000143820470032635      -0.790580575870064       0.601229609994574
                 11442.2      -0.789696007563945       0.602339958192336   -0.000118573374551167   -0.000144747930979266   -0.000118573374551167   -0.000144747930979266      -0.789696007563945       0.602339958192336
                 11442.4      -0.788805764326384       0.603454024085322   -0.000119699996896024   -0.000145681818542192   -0.000119699996896024   -0.000145681818542192      -0.788805764326384       0.603454024085322
                 11442.6      -0.787909796924839       0.604571822695188    -0.00012083908400557   -0.000146622168190669    -0.00012083908400557   -0.000146622168190669      -0.787909796924839       0.604571822695188
                 11442.8       -0.78700805558559       0.605693369070102   -0.000121990789529281   -0.000147569015207222   -0.000121990789529281   -0.000147569015207222       -0.78700805558559       0.605693369070102
                   11443      -0.786100489986499       0.606818678283551   -0.000123155269116957   -0.000148522394672393   -0.000123155269116957   -0.000148522394672393      -0.786100489986499       0.606818678283551
                 11443.2      -0.785187049249677       0.607947765433091   -0.000124332680443622   -0.000149482341448957   -0.000124332680443622   -0.000149482341448957      -0.785187049249677       0.607947765433091
                 11443.4      -0.784267681934033        0.60908064563904   -0.000125523183234632   -0.000150448890165619   -0.000125523183234632   -0.000150448890165619      -0.784267681934033        0.60908064563904
                 11443.6      -0.783342336027693       0.610217334043147   -0.000126726939290985   -0.000151422075200176   -0.000126726939290985   -0.000151422075200176      -0.783342336027693       0.610217334043147
                 11443.8      -0.782410958940293       0.611357845807233   -0.000127944112514863   -0.000152401930662145   -0.000127944112514863   -0.000152401930662145      -0.782410958940293       0.611357845807233
                   11444      -0.781473497495185       0.612502196111727   -0.000129174868935285   -0.000153388490374761   -0.000129174868935285   -0.000153388490374761      -0.781473497495185       0.612502196111727
                 11444.2      -0.780529897921479       0.613650400154214   -0.000130419376734025   -0.000154381787856456   -0.000130419376734025   -0.000154381787856456      -0.780529897921479       0.613650400154214
                 11444.4      -0.779580105845983        0.61480247314789   -0.000131677806271664   -0.000155381856301682   -0.000131677806271664   -0.000155381856301682      -0.779580105845983        0.61480247314789
                 11444.6      -0.778624066284996       0.615958430320003   -0.000132950330113841   -0.000156388728561144   -0.000132950330113841   -0.000156388728561144      -0.778624066284996       0.615958430320003
                 11444.8      -0.777661723635992       0.617118286910207    -0.00013423712305765   -0.000157402437121372    -0.00013423712305765   -0.000157402437121372      -0.777661723635992       0.617118286910207
                   11445      -0.776693021669148        0.61828205816888   -0.000135538362158216   -0.000158423014083646   -0.000135538362158216   -0.000158423014083646      -0.776693021669148        0.61828205816888
                 11445.2      -0.775717903518735       0.619449759355409   -0.000136854226755438    -0.00015945049114226   -0.000136854226755438    -0.00015945049114226      -0.775717903518735       0.619449759355409
                 11445.4      -0.774736311674408       0.620621405736349   -0.000138184898500816   -0.000160484899562034   -0.000138184898500816   -0.000160484899562034      -0.774736311674408       0.620621405736349
                 11445.6      -0.773748187972306       0.621797012583597   -0.000139530561384492   -0.000161526270155173   -0.000139530561384492   -0.000161526270155173      -0.773748187972306       0.621797012583597
                 11445.8      -0.772753473586014       0.622976595172493   -0.000140891401762398   -0.000162574633257379   -0.000140891401762398   -0.000162574633257379      -0.772753473586014       0.622976595172493
                   11446      -0.771752109017414       0.624160168779813   -0.000142267608383486   -0.000163630018703159   -0.000142267608383486   -0.000163630018703159      -0.771752109017414       0.624160168779813
                 11446.2      -0.770744034087372       0.625347748681726   -0.000143659372417082   -0.000164692455800391   -0.000143659372417082   -0.000164692455800391      -0.770744034087372       0.625347748681726
                 11446.4      -0.769729187926226        0.62653935015173   -0.000145066887480397   -0.000165761973304106   -0.000145066887480397   -0.000165761973304106      -0.769729187926226        0.62653935015173
                 11446.6      -0.768707508964203       0.627734988458422   -0.000146490349666017   -0.000166838599389387   -0.000146490349666017   -0.000166838599389387      -0.768707508964203       0.627734988458422
                 11446.8      -0.767678934921597       0.628934678863303   -0.000147929957569572   -0.000167922361623491   -0.000147929957569572   -0.000167922361623491      -0.767678934921597       0.628934678863303
                   11447      -0.766643402798845       0.630138436618432   -0.000149385912317381   -0.000169013286937034   -0.000149385912317381   -0.000169013286937034      -0.766643402798845       0.630138436618432
                 11447.2      -0.765600848866385       0.631346276964074   -0.000150858417594229   -0.000170111401594345   -0.000150858417594229   -0.000170111401594345      -0.765600848866385       0.631346276964074
                 11447.4      -0.764551208654405       0.632558215126205   -0.000152347679671082   -0.000171216731162833   -0.000152347679671082   -0.000171216731162833      -0.764551208654405       0.632558215126205
                 11447.6      -0.763494416942391       0.633774266313976   -0.000153853907432868   -0.000172329300481441   -0.000153853907432868   -0.000172329300481441      -0.763494416942391       0.633774266313976
                 11447.8      -0.762430407748461       0.634994445717135   -0.000155377312406315   -0.000173449133628162   -0.000155377312406315   -0.000173449133628162      -0.762430407748461       0.634994445717135
                   11448      -0.761359114318625       0.636218768503265   -0.000156918108787623   -0.000174576253886457   -0.000156918108787623   -0.000174576253886457      -0.761359114318625       0.636218768503265
                 11448.2      -0.760280469115754       0.637447249815048   -0.000158476513470255   -0.000175710683710746   -0.000158476513470255   -0.000175710683710746      -0.760280469115754       0.637447249815048
                 11448.4      -0.759194403808442       0.638679904767359   -0.000160052746072561   -0.000176852444690767   -0.000160052746072561   -0.000176852444690767      -0.759194403808442       0.638679904767359
                 11448.6      -0.758100849259619       0.639916748444349   -0.000161647028965423   -0.000178001557514912   -0.000161647028965423   -0.000178001557514912      -0.758100849259619       0.639916748444349
                 11448.8      -0.756999735515046       0.641157795896342   -0.000163259587299682   -0.000179158041932367   -0.000163259587299682   -0.000179158041932367      -0.756999735515046       0.641157795896342
                   11449       -0.75589099179154       0.642403062136726   -0.000164890649033567   -0.000180321916714179   -0.000164890649033567   -0.000180321916714179       -0.75589099179154       0.642403062136726
                 11449.2      -0.754774546465061       0.643652562138687   -0.000166540444959877   -0.000181493199613081   -0.000166540444959877   -0.000181493199613081      -0.754774546465061       0.643652562138687
                 11449.4       -0.75365032705854       0.644906310831886   -0.000168209208733078   -0.000182671907322159   -0.000168209208733078   -0.000182671907322159       -0.75365032705854       0.644906310831886
                 11449.6      -0.752518260229552       0.646164323099005   -0.000169897176896133   -0.000183858055432219   -0.000169897176896133   -0.000183858055432219      -0.752518260229552       0.646164323099005
                 11449.8      -0.751378271757758       0.647426613772179   -0.000171604588907125   -0.000185051658387895   -0.000171604588907125   -0.000185051658387895      -0.751378271757758       0.647426613772179
                   11450      -0.750230286532104       0.648693197629373    -0.00017333168716567   -0.000186252729442461    -0.00017333168716567   -0.000186252729442461      -0.750230286532104       0.648693197629373
                 11450.2      -0.749074228537857        0.64996408939058   -0.000175078717038962   -0.000187461280611241   -0.000175078717038962   -0.000187461280611241      -0.749074228537857        0.64996408939058
                 11450.4      -0.747910020843381       0.651239303713933   -0.000176845926887538   -0.000188677322623656   -0.000176845926887538   -0.000188677322623656      -0.747910020843381       0.651239303713933
                 11450.6      -0.746737585586674       0.652518855191731   -0.000178633568090724    -0.00018990086487386   -0.000178633568090724    -0.00018990086487386      -0.746737585586674       0.652518855191731
                 11450.8      -0.745556843961709       0.653802758346284   -0.000180441895071614   -0.000191131915369864   -0.000180441895071614   -0.000191131915369864      -0.745556843961709       0.653802758346284
                   11451      -0.744367716204507       0.655091027625679   -0.000182271165321674   -0.000192370480681188   -0.000182271165321674   -0.000192370480681188      -0.744367716204507       0.655091027625679
                 11451.2      -0.743170121579009       0.656383677399368   -0.000184121639424809   -0.000193616565884918   -0.000184121639424809   -0.000193616565884918      -0.743170121579009       0.656383677399368
                 11451.4      -0.741963978362631       0.657680721953703   -0.000185993581081025   -0.000194870174510243   -0.000185993581081025   -0.000194870174510243      -0.741963978362631       0.657680721953703
                 11451.6      -0.740749203831633        0.65898217548726   -0.000187887257129429   -0.000196131308481291   -0.000187887257129429   -0.000196131308481291      -0.740749203831633        0.65898217548726
                 11451.8      -0.739525714246212       0.660288052106045   -0.000189802937570653   -0.000197399968058303   -0.000189802937570653   -0.000197399968058303      -0.739525714246212       0.660288052106045
                   11452       -0.73829342483532       0.661598365818572    -0.00019174089558864   -0.000198676151777098    -0.00019174089558864   -0.000198676151777098       -0.73829342483532       0.661598365818572
                 11452.2      -0.737052249781241        0.66291313053076   -0.000193701407571683   -0.000199959856386732   -0.000193701407571683   -0.000199959856386732      -0.737052249781241        0.66291313053076
                 11452.4       -0.73580210220386        0.66423236004072    -0.00019568475313276   -0.000201251076785385    -0.00019568475313276   -0.000201251076785385       -0.73580210220386        0.66423236004072
                 11452.6      -0.734542894144674       0.665556068033359   -0.000197691215129009   -0.000202549805954352   -0.000197691215129009   -0.000202549805954352      -0.734542894144674       0.665556068033359
                 11452.8      -0.733274536550535       0.666884268074809    -0.00019972107968031   -0.000203856034890097    -0.00019972107968031   -0.000203856034890097      -0.733274536550535       0.666884268074809
                   11453      -0.731996939257089       0.668216973606701   -0.000201774636186938   -0.000205169752534363   -0.000201774636186938   -0.000205169752534363      -0.731996939257089       0.668216973606701
                 11453.2      -0.730710010971893       0.669554197940295   -0.000203852177346252   -0.000206490945702273   -0.000203852177346252   -0.000206490945702273      -0.730710010971893       0.669554197940295
                 11453.4      -0.729413659257291       0.670895954250378   -0.000205953999168212   -0.000207819599008306   -0.000205953999168212   -0.000207819599008306      -0.729413659257291       0.670895954250378
                 11453.6      -0.728107790512927       0.672242255569025   -0.000208080400989832   -0.000209155694790191   -0.000208080400989832   -0.000209155694790191      -0.728107790512927       0.672242255569025
                 11453.8      -0.726792309957948       0.673593114779175   -0.000210231685488395   -0.000210499213030614   -0.000210231685488395   -0.000210499213030614      -0.726792309957948       0.673593114779175
                   11454      -0.725467121612948       0.674948544607956   -0.000212408158693271    -0.00021185013127662   -0.000212408158693271    -0.00021185013127662      -0.725467121612948       0.674948544607956
                 11454.2      -0.724132128281525       0.676308557619863   -0.000214610129996437   -0.000213208424556767   -0.000214610129996437   -0.000213208424556767      -0.724132128281525       0.676308557619863
                 11454.4      -0.722787231531504       0.677673166209732   -0.000216837912161508   -0.000214574065295918   -0.000216837912161508   -0.000214574065295918      -0.722787231531504       0.677673166209732
                 11454.6      -0.721432331675853       0.679042382595481    -0.00021909182133117   -0.000215947023227587    -0.00021909182133117   -0.000215947023227587      -0.721432331675853       0.679042382595481
                 11454.8      -0.720067327753226       0.680416218810642   -0.000221372177032952   -0.000217327265303801   -0.000221372177032952   -0.000217327265303801      -0.720067327753226       0.680416218810642
                   11455       -0.71869211750816       0.681794686696677   -0.000223679302183248   -0.000218714755602426   -0.000223679302183248   -0.000218714755602426       -0.71869211750816       0.681794686696677
                 11455.2      -0.717306597370937       0.683177797895019   -0.000226013523089394   -0.000220109455231826   -0.000226013523089394   -0.000220109455231826      -0.717306597370937       0.683177797895019
                 11455.4      -0.715910662437002       0.684565563838964   -0.000228375169449901    -0.00022151132223293   -0.000228375169449901    -0.00022151132223293      -0.715910662437002       0.684565563838964
                 11455.6      -0.714504206446087        0.68595799574523   -0.000230764574352438   -0.000222920311478451   -0.000230764574352438   -0.000222920311478451      -0.714504206446087        0.68595799574523
                 11455.8      -0.713087121760896       0.687355104605309   -0.000233182074269684   -0.000224336374569349   -0.000233182074269684   -0.000224336374569349      -0.713087121760896       0.687355104605309
                   11456      -0.711659299345413       0.688756901176558   -0.000235628009052806   -0.000225759459728369   -0.000235628009052806   -0.000225759459728369      -0.711659299345413       0.688756901176558
                 11456.2      -0.710220628742824       0.690163395972988   -0.000238102721922418    -0.00022718951169061   -0.000238102721922418    -0.00022718951169061      -0.710220628742824       0.690163395972988
                 11456.4      -0.708770998052992       0.691574599255835   -0.000240606559456994   -0.000228626471591089   -0.000240606559456994   -0.000228626471591089      -0.708770998052992       0.691574599255835
                 11456.6       -0.70731029390955       0.692990521023784    -0.00024313987157843   -0.000230070276849148    -0.00024313987157843   -0.000230070276849148       -0.70731029390955       0.692990521023784
                 11456.8      -0.705838401456508       0.694411171002981   -0.000245703011534794   -0.000231520861049729   -0.000245703011534794   -0.000231520861049729      -0.705838401456508       0.694411171002981
                   11457      -0.704355204324534       0.695836558636617   -0.000248296335879812   -0.000232978153821279   -0.000248296335879812   -0.000232978153821279      -0.704355204324534       0.695836558636617
                 11457.2      -0.702860584606656       0.697266693074339    -0.00025092020444931   -0.000234442080710421    -0.00025092020444931   -0.000234442080710421      -0.702860584606656       0.697266693074339
                 11457.4      -0.701354422833589       0.698701583161258   -0.000253574980334111   -0.000235912563053128   -0.000253574980334111   -0.000235912563053128      -0.701354422833589       0.698701583161258
                 11457.6      -0.699836597948577       0.700141237426638   -0.000256261029849342   -0.000237389517842396   -0.000256261029849342   -0.000237389517842396      -0.699836597948577       0.700141237426638
                 11457.8       -0.69830698728174       0.701585664072279   -0.000258978722499989   -0.000238872857592349   -0.000258978722499989   -0.000238872857592349       -0.69830698728174       0.701585664072279
                   11458      -0.696765466523989       0.703034870960475   -0.000261728430942342   -0.000240362490198601   -0.000261728430942342   -0.000240362490198601      -0.696765466523989       0.703034870960475
                 11458.2      -0.695211909700364       0.704488865601702   -0.000264510530941373   -0.000241858318794935   -0.000264510530941373   -0.000241858318794935      -0.695211909700364       0.704488865601702
                 11458.4       -0.69364618914293       0.705947655141863   -0.000267325401323567   -0.000243360241606066   -0.000267325401323567   -0.000243360241606066       -0.69364618914293       0.705947655141863
                 11458.6      -0.692068175463094       0.707411246349204   -0.000270173423925209   -0.000244868151796521   -0.000270173423925209   -0.000244868151796521      -0.692068175463094       0.707411246349204
                 11458.8      -0.690477737523496       0.708879645600736   -0.000273054983535554   -0.000246381937315377   -0.000273054983535554   -0.000246381937315377      -0.690477737523496       0.708879645600736
                   11459      -0.688874742409195       0.710352858868396   -0.000275970467835167   -0.000247901480737047   -0.000275970467835167   -0.000247901480737047      -0.688874742409195       0.710352858868396
                 11459.2      -0.687259055398481       0.711830891704625   -0.000278920267328501   -0.000249426659097677   -0.000278920267328501   -0.000249426659097677      -0.687259055398481       0.711830891704625
                 11459.4      -0.685630539932975       0.713313749227639   -0.000281904775271056   -0.000250957343727369   -0.000281904775271056   -0.000250957343727369      -0.685630539932975       0.713313749227639
                 11459.6      -0.683989057587217        0.71480143610619   -0.000284924387590425   -0.000252493400077946   -0.000284924387590425   -0.000252493400077946      -0.683989057587217        0.71480143610619
                 11459.8       -0.68233446803768       0.716293956543847   -0.000287979502801037   -0.000254034687546208   -0.000287979502801037   -0.000254034687546208       -0.68233446803768       0.716293956543847
                   11460      -0.680666629031128       0.717791314262847   -0.000291070521912386   -0.000255581059292644   -0.000291070521912386   -0.000255581059292644      -0.680666629031128       0.717791314262847
                 11460.2      -0.678985396352379       0.719293512487428   -0.000294197848330288   -0.000257132362055439   -0.000294197848330288   -0.000257132362055439      -0.678985396352379       0.719293512487428
                 11460.4      -0.677290623791447       0.720800553926649   -0.000297361887750864   -0.000258688435959694   -0.000297361887750864   -0.000258688435959694      -0.677290623791447       0.720800553926649
                 11460.6      -0.675582163110029       0.722312440756679   -0.000300563048046862   -0.000260249114321765   -0.000300563048046862   -0.000260249114321765      -0.675582163110029       0.722312440756679
                 11460.8      -0.673859864007315       0.723829174602576   -0.000303801739146047   -0.000261814223448665   -0.000303801739146047   -0.000261814223448665      -0.673859864007315       0.723829174602576
                   11461      -0.672123574085156        0.72535075651946   -0.000307078372901088   -0.000263383582432342   -0.000307078372901088   -0.000263383582432342      -0.672123574085156        0.72535075651946
                 11461.2      -0.670373138812498       0.726877186973156   -0.000310393362950715   -0.000264957002938848   -0.000310393362950715   -0.000264957002938848      -0.670373138812498       0.726877186973156
                 11461.4      -0.668608401489157       0.728408465820194   -0.000313747124571537   -0.000266534288992196   -0.000313747124571537   -0.000266534288992196      -0.668608401489157       0.728408465820194
                 11461.6       -0.66682920320882       0.729944592287242   -0.000317140074520257   -0.000268115236752904   -0.000317140074520257   -0.000268115236752904       -0.66682920320882       0.729944592287242
                 11461.8      -0.665035382821364       0.731485564949851   -0.000320572630865588   -0.000269699634291036   -0.000320572630865588   -0.000269699634291036      -0.665035382821364       0.731485564949851
                   11462      -0.663226776894363        0.73303138171059   -0.000324045212809635   -0.000271287261353759   -0.000324045212809635   -0.000271287261353759      -0.663226776894363        0.73303138171059
                 11462.2      -0.661403219673889       0.734582039776456   -0.000327558240497929   -0.000272877889127183   -0.000327558240497929   -0.000272877889127183      -0.661403219673889       0.734582039776456
                 11462.4       -0.65956454304442       0.736137535635654   -0.000331112134817956   -0.000274471279992576   -0.000331112134817956   -0.000274471279992576       -0.65956454304442       0.736137535635654
                 11462.6      -0.657710576488073       0.737697865033558   -0.000334707317185128    -0.00027606718727664   -0.000334707317185128    -0.00027606718727664      -0.657710576488073       0.737697865033558
                 11462.8      -0.655841147042868       0.739263022948037   -0.000338344209316148   -0.000277665354996007   -0.000338344209316148   -0.000277665354996007      -0.655841147042868       0.739263022948037
                   11463      -0.653956079260285       0.740833003563887   -0.000342023232988602   -0.000279265517595625   -0.000342023232988602   -0.000279265517595625      -0.653956079260285       0.740833003563887
                 11463.2      -0.652055195161815       0.742407800246595   -0.000345744809786681   -0.000280867399681191   -0.000345744809786681   -0.000280867399681191      -0.652055195161815       0.742407800246595
                 11463.4       -0.65013831419476       0.743987405515161   -0.000349509360831821   -0.000282470715745331   -0.000349509360831821   -0.000282470715745331       -0.65013831419476       0.743987405515161
                 11463.6      -0.648205253187053       0.745571811014126   -0.000353317306497957   -0.000284075169887612   -0.000353317306497957   -0.000284075169887612      -0.648205253187053       0.745571811014126
                 11463.8      -0.646255826301077       0.747161007484795   -0.000357169066110653   -0.000285680455528333   -0.000357169066110653   -0.000285680455528333      -0.646255826301077       0.747161007484795
                   11464      -0.644289844986757       0.748754984735353   -0.000361065057628769   -0.000287286255115772   -0.000361065057628769   -0.000287286255115772      -0.644289844986757       0.748754984735353
                 11464.2       -0.64230711793345       0.750353731610241   -0.000365005697308719   -0.000288892239827215   -0.000365005697308719   -0.000288892239827215       -0.64230711793345       0.750353731610241
                 11464.4      -0.640307451020949       0.751957235958472    -0.00036899139934985   -0.000290498069263426    -0.00036899139934985   -0.000290498069263426      -0.640307451020949       0.751957235958472
                 11464.6       -0.63829064726946        0.75356548460095   -0.000373022575520242   -0.000292103391136619   -0.000373022575520242   -0.000292103391136619       -0.63829064726946        0.75356548460095
                 11464.8      -0.636256506788566        0.75517846329673   -0.000377099634761985   -0.000293707840951861   -0.000377099634761985   -0.000293707840951861      -0.636256506788566        0.75517846329673
                   11465      -0.634204826725024       0.756796156708282   -0.000381222982775169   -0.000295311041681966   -0.000381222982775169   -0.000295311041681966      -0.634204826725024       0.756796156708282
                 11465.2      -0.632135401209624       0.758418548365538   -0.000385393021579122   -0.000296912603435684   -0.000385393021579122   -0.000296912603435684      -0.632135401209624       0.758418548365538
                 11465.4      -0.630048021302765       0.760045620628904   -0.000389610149050442   -0.000298512123119401   -0.000389610149050442   -0.000298512123119401      -0.630048021302765       0.760045620628904
                 11465.6      -0.627942474939078       0.761677354650954   -0.000393874758436028   -0.000300109184092092   -0.000393874758436028   -0.000300109184092092      -0.627942474939078       0.761677354650954
                 11465.8      -0.625818546870625       0.763313730337083    -0.00039818723784083   -0.000301703355813873    -0.00039818723784083   -0.000301703355813873      -0.625818546870625       0.763313730337083
                   11466      -0.623676018609225       0.764954726304649   -0.000402547969687967   -0.000303294193487734   -0.000402547969687967   -0.000303294193487734      -0.623676018609225       0.764954726304649
                 11466.2      -0.621514668367232       0.766600319841039   -0.000406957330151234   -0.000304881237694993   -0.000406957330151234   -0.000304881237694993      -0.621514668367232       0.766600319841039
                 11466.4      -0.619334270997292       0.768250486860199   -0.000411415688557563   -0.000306464014024109   -0.000411415688557563   -0.000306464014024109      -0.619334270997292       0.768250486860199
                 11466.6      -0.617134597930706       0.769905201857852   -0.000415923406758771   -0.000308042032693177   -0.000415923406758771   -0.000308042032693177      -0.617134597930706       0.769905201857852
                 11466.8        -0.6149154171145       0.771564437865223   -0.000420480838470852   -0.000309614788166109   -0.000420480838470852   -0.000309614788166109        -0.6149154171145       0.771564437865223
                   11467      -0.612676492947145       0.773228166401271   -0.000425088328579382   -0.000311181758762625   -0.000425088328579382   -0.000311181758762625      -0.612676492947145       0.773228166401271