! This file was generated by CST Filter Designer 3D
! _________________________________________________
! Date:                         04.09.2025 07:05:07

# MHZ S RI R 50
!              Frequency                 Re(S11)                 Im(S11)                 Re(S21)                 Im(S21)                 Re(S12)                 Im(S12)                 Re(S22)                 Im(S22)
                   26900       -0.77595735877198       0.625715265953521    6.46985068678344e-05    7.59645759809169e-05    6.46985068678344e-05    7.59645759809169e-05       -0.77595735877198       0.625715265953521
                 26901.8      -0.775006003155988       0.626869975823866    6.56376557304589e-05    7.68244756779335e-05    6.56376557304589e-05    7.68244756779335e-05      -0.775006003155988       0.626869975823866
                 26903.6      -0.774048583483846       0.628028432176379    6.65923191270419e-05    7.76953203004427e-05    6.65923191270419e-05    7.76953203004427e-05      -0.774048583483846       0.628028432176379
                 26905.4       -0.77308504777831       0.629190648921514    6.75627843471732e-05      7.857726093386e-05    6.75627843471732e-05      7.857726093386e-05       -0.77308504777831       0.629190648921514
                 26907.2      -0.772115343500144       0.630356639973962    6.85493445686203e-05    7.94704508149177e-05    6.85493445686203e-05    7.94704508149177e-05      -0.772115343500144       0.630356639973962
                   26909      -0.771139417540749       0.631526419251076    6.95522989894655e-05    8.03750453601494e-05    6.95522989894655e-05    8.03750453601494e-05      -0.771139417540749       0.631526419251076
                 26910.8      -0.770157216214719       0.632700000671219    7.05719529634256e-05    8.12912021945693e-05    7.05719529634256e-05    8.12912021945693e-05      -0.770157216214719       0.632700000671219
                 26912.6      -0.769168685252243       0.633877398152095    7.16086181384984e-05    8.22190811805938e-05    7.16086181384984e-05    8.22190811805938e-05      -0.769168685252243       0.633877398152095
                 26914.4      -0.768173769791415       0.635058625608997    7.26626125989725e-05    8.31588444471531e-05    7.26626125989725e-05    8.31588444471531e-05      -0.768173769791415       0.635058625608997
                 26916.2      -0.767172414370412       0.636243696953028    7.37342610109235e-05    8.41106564190161e-05    7.37342610109235e-05    8.41106564190161e-05      -0.767172414370412       0.636243696953028
                   26918      -0.766164562919564       0.637432626089249    7.48238947712627e-05    8.50746838462982e-05    7.48238947712627e-05    8.50746838462982e-05      -0.766164562919564       0.637432626089249
                 26919.8      -0.765150158753284       0.638625426914782    7.59318521604513e-05    8.60510958341586e-05    7.59318521604513e-05    8.60510958341586e-05      -0.765150158753284       0.638625426914782
                 26921.6      -0.764129144561882       0.639822113316864    7.70584784989739e-05    8.70400638726766e-05    7.70584784989739e-05    8.70400638726766e-05      -0.764129144561882       0.639822113316864
                 26923.4      -0.763101462403255       0.641022699170815    7.82041263076419e-05    8.80417618668704e-05    7.82041263076419e-05    8.80417618668704e-05      -0.763101462403255       0.641022699170815
                 26925.2      -0.762067053694434       0.642227198337985    7.93691554718876e-05    8.90563661668989e-05    7.93691554718876e-05    8.90563661668989e-05      -0.762067053694434       0.642227198337985
                   26927      -0.761025859203018       0.643435624663595    8.05539334100755e-05    9.00840555983674e-05    8.05539334100755e-05    9.00840555983674e-05      -0.761025859203018       0.643435624663595
                 26928.8      -0.759977819038445       0.644647991974565    8.17588352460244e-05    9.11250114927965e-05    8.17588352460244e-05    9.11250114927965e-05      -0.759977819038445       0.644647991974565
                 26930.6      -0.758922872643154       0.645864314077233    8.29842439857748e-05    9.21794177181771e-05    8.29842439857748e-05    9.21794177181771e-05      -0.758922872643154       0.645864314077233
                 26932.4      -0.757860958783596       0.647084604755025    8.42305506987557e-05    9.32474607096303e-05    8.42305506987557e-05    9.32474607096303e-05      -0.757860958783596       0.647084604755025
                 26934.2      -0.756792015541094        0.64830887776607    8.54981547034724e-05    9.43293295001611e-05    8.54981547034724e-05    9.43293295001611e-05      -0.756792015541094        0.64830887776607
                   26936      -0.755715980302576       0.649537146840715    8.67874637578029e-05      9.542521575146e-05    8.67874637578029e-05      9.542521575146e-05      -0.755715980302576       0.649537146840715
                 26937.8      -0.754632789751135       0.650769425679007    8.80988942540752e-05    9.65353137847781e-05    8.80988942540752e-05    9.65353137847781e-05      -0.754632789751135       0.650769425679007
                 26939.6      -0.753542379856479       0.652005727948052      8.943287141898e-05    9.76598206117937e-05      8.943287141898e-05    9.76598206117937e-05      -0.753542379856479       0.652005727948052
                 26941.4      -0.752444685865178       0.653246067279346    9.07898295185451e-05    9.87989359655317e-05    9.07898295185451e-05    9.87989359655317e-05      -0.752444685865178       0.653246067279346
                 26943.2      -0.751339642290793       0.654490457266002    9.21702120682208e-05    9.99528623312431e-05    9.21702120682208e-05    9.99528623312431e-05      -0.751339642290793       0.654490457266002
                   26945      -0.750227182903839       0.655738911459893    9.35744720482487e-05    0.000101121804977249    9.35744720482487e-05    0.000101121804977249      -0.750227182903839       0.655738911459893
                 26946.8      -0.749107240721568       0.656991443368732    9.50030721244799e-05     0.00010230597198575    9.50030721244799e-05     0.00010230597198575      -0.749107240721568       0.656991443368732
                 26948.6      -0.747979747997614       0.658248066453049    9.64564848747351e-05    0.000103505574283521    9.64564848747351e-05    0.000103505574283521      -0.747979747997614       0.658248066453049
                 26950.4       -0.74684463621145       0.659508794123095    9.79351930209147e-05    0.000104720825672524    9.79351930209147e-05    0.000104720825672524       -0.74684463621145       0.659508794123095
                 26952.2      -0.745701836057684       0.660773639735647    9.94396896669617e-05    0.000105951942860363    9.94396896669617e-05    0.000105951942860363      -0.745701836057684       0.660773639735647
                   26954      -0.744551277435176       0.662042616590727    0.000100970478542881    0.000107199145490582    0.000100970478542881    0.000107199145490582      -0.744551277435176       0.662042616590727
                 26955.8      -0.743392889435984       0.663315737928224    0.000102528074254945    0.000108462656172752    0.000102528074254945    0.000108462656172752      -0.743392889435984       0.663315737928224
                 26957.6      -0.742226600334127       0.664593016924419    0.000104113002542272    0.000109742700512336    0.000104113002542272    0.000109742700512336      -0.742226600334127       0.664593016924419
                 26959.4      -0.741052337574159       0.665874466688415    0.000105725800539949    0.000111039507140278    0.000105725800539949    0.000111039507140278      -0.741052337574159       0.665874466688415
                 26961.2      -0.739870027759571       0.667160100258455    0.000107367017048864    0.000112353307742277    0.000107367017048864    0.000112353307742277      -0.739870027759571       0.667160100258455
                   26963      -0.738679596640972       0.668449930598157    0.000109037212812476    0.000113684337087752    0.000109037212812476    0.000113684337087752      -0.738679596640972       0.668449930598157
                 26964.8      -0.737480969104116       0.669743970592607    0.000110736960800618    0.000115032833058364    0.000110736960800618    0.000115032833058364      -0.737480969104116       0.669743970592607
                 26966.6        -0.7362740691577        0.67104223304437     0.00011246684650064    0.000116399036676153     0.00011246684650064    0.000116399036676153        -0.7362740691577        0.67104223304437
                 26968.4      -0.735058819920969       0.672344730669385    0.000114227468216024    0.000117783192131184    0.000114227468216024    0.000117783192131184      -0.735058819920969       0.672344730669385
                 26970.2      -0.733835143611123        0.67365147609272    0.000116019437372667    0.000119185546808656    0.000116019437372667    0.000119185546808656      -0.733835143611123        0.67365147609272
                   26972      -0.732602961530505       0.674962481844232      0.0001178433788331    0.000120606351315451      0.0001178433788331    0.000120606351315451      -0.732602961530505       0.674962481844232
                 26973.8       -0.73136219405358       0.676277760354096    0.000119699931218811    0.000122045859506047    0.000119699931218811    0.000122045859506047       -0.73136219405358       0.676277760354096
                 26975.6      -0.730112760613692       0.677597323948202    0.000121589747240917     0.00012350432850774    0.000121589747240917     0.00012350432850774      -0.730112760613692       0.677597323948202
                 26977.4      -0.728854579689607       0.678921184843425    0.000123513494039407    0.000124982018745122    0.000123513494039407    0.000124982018745122      -0.728854579689607       0.678921184843425
                 26979.2      -0.727587568791826       0.680249355142761    0.000125471853531206    0.000126479193963752    0.000125471853531206    0.000126479193963752      -0.727587568791826       0.680249355142761
                   26981      -0.726311644448662       0.681581846830327    0.000127465522767286    0.000127996121252946    0.000127465522767286    0.000127996121252946      -0.726311644448662       0.681581846830327
                 26982.8      -0.725026722192097       0.682918671766216    0.000129495214299091    0.000129533071067623    0.000129495214299091    0.000129533071067623      -0.725026722192097       0.682918671766216
                 26984.6      -0.723732716543374       0.684259841681215    0.000131561656554539    0.000131090317249148    0.000131561656554539    0.000131090317249148      -0.723732716543374       0.684259841681215
                 26986.4      -0.722429540998384       0.685605368171353    0.000133665594223823    0.000132668137045043    0.000133665594223823    0.000132668137045043      -0.722429540998384       0.685605368171353
                 26988.2       -0.72111710801276       0.686955262692327    0.000135807788655358    0.000134266811127567    0.000135807788655358    0.000134266811127567       -0.72111710801276       0.686955262692327
                   26990      -0.719795328986758       0.688309536553734    0.000137989018262083    0.000135886623610996    0.000137989018262083    0.000135886623610996      -0.719795328986758       0.688309536553734
                 26991.8      -0.718464114249843       0.689668200913173    0.000140210078938471    0.000137527862067588    0.000140210078938471    0.000137527862067588      -0.718464114249843       0.689668200913173
                 26993.6      -0.717123373045042       0.691031266770159    0.000142471784488489    0.000139190817542074    0.000142471784488489    0.000139190817542074      -0.717123373045042       0.691031266770159
                 26995.4      -0.715773013513009       0.692398744959876    0.000144774967064858    0.000140875784564629    0.000144774967064858    0.000140875784564629      -0.715773013513009       0.692398744959876
                 26997.2      -0.714412942675827       0.693770646146744    0.000147120477619905    0.000142583061162184    0.000147120477619905    0.000142583061162184      -0.714412942675827       0.693770646146744
                   26999      -0.713043066420524       0.695146980817812    0.000149509186368342    0.000144312948867987    0.000149509186368342    0.000144312948867987      -0.713043066420524       0.695146980817812
                 27000.8      -0.711663289482309       0.696527759275964     0.00015194198326231    0.000146065752729308     0.00015194198326231    0.000146065752729308      -0.711663289482309       0.696527759275964
                 27002.6      -0.710273515427507       0.697912991632931    0.000154419778479029    0.000147841781313141    0.000154419778479029    0.000147841781313141      -0.710273515427507       0.697912991632931
                 27004.4      -0.708873646636215       0.699302687802106      0.0001569435029214    0.000149641346709802      0.0001569435029214    0.000149641346709802      -0.708873646636215       0.699302687802106
                 27006.2      -0.707463584284643        0.70069685749115    0.000159514108731934    0.000151464764534278    0.000159514108731934    0.000151464764534278      -0.707463584284643        0.70069685749115
                   27008      -0.706043228327153         0.7020955101944    0.000162132569820391    0.000153312353925193    0.000162132569820391    0.000153312353925193      -0.706043228327153         0.7020955101944
                 27009.8      -0.704612477477969       0.703498655185064    0.000164799882405529    0.000155184437541273    0.000164799882405529    0.000155184437541273      -0.704612477477969       0.703498655185064
                 27011.6      -0.703171229192602       0.704906301507169    0.000167517065571266    0.000157081341555063    0.000167517065571266    0.000157081341555063      -0.703171229192602       0.704906301507169
                 27013.4      -0.701719379648899       0.706318457967323    0.000170285161837847    0.000159003395643896    0.000170285161837847    0.000159003395643896      -0.701719379648899       0.706318457967323
                 27015.2      -0.700256823727806       0.707735133126198    0.000173105237748235    0.000160950932977774    0.000173105237748235    0.000160950932977774      -0.700256823727806       0.707735133126198
                   27017      -0.698783454993752       0.709156335289816    0.000175978384470334     0.00016292429020412    0.000175978384470334     0.00016292429020412      -0.698783454993752       0.709156335289816
                 27018.8      -0.697299165674707        0.71058207250056    0.000178905718415374    0.000164923807429149    0.000178905718415374    0.000164923807429149      -0.697299165674707        0.71058207250056
                 27020.6      -0.695803846641894       0.712012352527923    0.000181888381872949    0.000166949828195646    0.000181888381872949    0.000166949828195646      -0.695803846641894       0.712012352527923
                 27022.4      -0.694297387389105       0.713447182859038     0.00018492754366326    0.000169002699457056     0.00018492754366326    0.000169002699457056      -0.694297387389105       0.713447182859038
                 27024.2      -0.692779676011692       0.714886570688878    0.000188024399806899    0.000171082771547515    0.000188024399806899    0.000171082771547515      -0.692779676011692       0.714886570688878
                   27026      -0.691250599185144       0.716330522910231    0.000191180174212842    0.000173190398147748    0.000191180174212842    0.000173190398147748      -0.691250599185144       0.716330522910231
                 27027.8      -0.689710042143301       0.717779046103364    0.000194396119385049    0.000175325936246513    0.000194396119385049    0.000175325936246513      -0.689710042143301       0.717779046103364
                 27029.6      -0.688157888656179       0.719232146525392    0.000197673517148249    0.000177489746097364    0.000197673517148249    0.000177489746097364      -0.688157888656179       0.719232146525392
                 27031.4      -0.686594021007375       0.720689830099354     0.00020101367939347    0.000179682191170496     0.00020101367939347    0.000179682191170496      -0.686594021007375       0.720689830099354
                 27033.2      -0.685018319971087       0.722152102402971     0.00020441794884386    0.000181903638099384     0.00020441794884386    0.000181903638099384      -0.685018319971087       0.722152102402971
                   27035        -0.6834306647887        0.72361896865709    0.000207887699841383    0.000184154456621947    0.000207887699841383    0.000184154456621947        -0.6834306647887        0.72361896865709
                 27036.8      -0.681830933144958       0.725090433713793    0.000211424339155001    0.000186435019515933    0.000211424339155001    0.000186435019515933      -0.681830933144958       0.725090433713793
                 27038.6      -0.680219001143692       0.726566502044163     0.00021502930681094     0.00018874570252822     0.00021502930681094     0.00018874570252822      -0.680219001143692       0.726566502044163
                 27040.4      -0.678594743283127       0.728047177725703    0.000218704076945665    0.000191086884297692    0.000218704076945665    0.000191086884297692      -0.678594743283127       0.728047177725703
                 27042.2      -0.676958032430697       0.729532464429411    0.000222450158682305    0.000193458946271409    0.000222450158682305    0.000193458946271409      -0.676958032430697       0.729532464429411
                   27044      -0.675308739797446       0.731022365406446    0.000226269097031041     0.00019586227261362    0.000226269097031041     0.00019586227261362      -0.675308739797446       0.731022365406446
                 27045.8      -0.673646734911922       0.732516883474454    0.000230162473814296    0.000198297250107334    0.000230162473814296    0.000198297250107334      -0.673646734911922       0.732516883474454
                 27047.6      -0.671971885593599       0.734016021003476    0.000234131908617396    0.000200764268048026    0.000234131908617396    0.000200764268048026      -0.671971885593599       0.734016021003476
                 27049.4      -0.670284057925828       0.735519779901448    0.000238179059765346    0.000203263718129027    0.000238179059765346    0.000203263718129027      -0.670284057925828       0.735519779901448
                 27051.2      -0.668583116228248       0.737028161599313    0.000242305625326665    0.000205795994318267    0.000242305625326665    0.000205795994318267      -0.668583116228248       0.737028161599313
                   27053      -0.666868923028726       0.738541167035658    0.000246513344144833    0.000208361492725806    0.000246513344144833    0.000208361492725806      -0.666868923028726       0.738541167035658
                 27054.8      -0.665141339034749       0.740058796640947    0.000250803996898331    0.000210960611461781    0.000250803996898331    0.000210960611461781      -0.665141339034749       0.740058796640947
                 27056.6      -0.663400223104278       0.741581050321285    0.000255179407190026    0.000213593750484224    0.000255179407190026    0.000213593750484224      -0.663400223104278       0.741581050321285
                 27058.4      -0.661645432216085       0.743107927441698     0.00025964144266669    0.000216261311436225     0.00025964144266669    0.000216261311436225      -0.661645432216085       0.743107927441698
                 27060.2      -0.659876821439499       0.744639426808955    0.000264192016169672    0.000218963697471962    0.000264192016169672    0.000218963697471962      -0.659876821439499       0.744639426808955
                   27062       -0.65809424390361       0.746175546653868    0.000268833086917443    0.000221701313070941    0.000268833086917443    0.000221701313070941       -0.65809424390361       0.746175546653868
                 27063.8      -0.656297550765871       0.747716284613093    0.000273566661721112    0.000224474563839952    0.000273566661721112    0.000224474563839952      -0.656297550765871       0.747716284613093
                 27065.6      -0.654486591180139       0.749261637710375    0.000278394796233655    0.000227283856301995    0.000278394796233655    0.000227283856301995      -0.654486591180139       0.749261637710375
                 27067.4      -0.652661212264053       0.750811602337302     0.00028331959623414    0.000230129597671706     0.00028331959623414    0.000230129597671706      -0.652661212264053       0.750811602337302
                 27069.2      -0.650821259065863       0.752366174233421    0.000288343218947554    0.000233012195616371    0.000288343218947554    0.000233012195616371      -0.650821259065863       0.752366174233421
                   27071       -0.64896657453057       0.753925348465838    0.000293467874401651    0.000235932058002028    0.000293467874401651    0.000235932058002028       -0.64896657453057       0.753925348465838
                 27072.8      -0.647096999465447       0.755489119408187    0.000298695826821639     0.00023888959262378    0.000298695826821639     0.00023888959262378      -0.647096999465447       0.755489119408187
                 27074.6      -0.645212372504902       0.757057480718977    0.000304029396063848    0.000241885206919541    0.000304029396063848    0.000241885206919541      -0.645212372504902       0.757057480718977
                 27076.4      -0.643312530074648        0.75863042531933    0.000309470959089609    0.000244919307666489    0.000309470959089609    0.000244919307666489      -0.643312530074648        0.75863042531933
                 27078.2      -0.641397306355196       0.760207945370041    0.000315022951480369    0.000247992300659244    0.000315022951480369    0.000247992300659244      -0.641397306355196       0.760207945370041
                   27080      -0.639466533244654       0.761790032247962    0.000320687868995282    0.000251104590368947    0.000320687868995282    0.000251104590368947      -0.639466533244654       0.761790032247962
                 27081.8      -0.637520040320786       0.763376676521697    0.000326468269172527    0.000254256579582267    0.000326468269172527    0.000254256579582267      -0.637520040320786       0.763376676521697
                 27083.6      -0.635557654802341       0.764967867926579    0.000332366772975604    0.000257448669019381    0.000332366772975604    0.000257448669019381      -0.635557654802341       0.764967867926579
                 27085.4      -0.633579201509646        0.76656359533889    0.000338386066485819    0.000260681256929816    0.000338386066485819    0.000260681256929816      -0.633579201509646        0.76656359533889
                 27087.2      -0.631584502824416       0.768163846749323      0.0003445289026424     0.00026395473866516      0.0003445289026424     0.00026395473866516      -0.631584502824416       0.768163846749323
                   27089      -0.629573378648779       0.769768609235665    0.000350798103031572    0.000267269506227449    0.000350798103031572    0.000267269506227449      -0.629573378648779       0.769768609235665
                 27090.8       -0.62754564636351       0.771377868934642    0.000357196559725932    0.000270625947792046    0.000357196559725932    0.000270625947792046       -0.62754564636351       0.771377868934642
                 27092.6      -0.625501120785432       0.772991611012939    0.000363727237175672    0.000274024447203789    0.000363727237175672    0.000274024447203789      -0.625501120785432       0.772991611012939
                 27094.4      -0.623439614123996       0.774609819637343    0.000370393174153003    0.000277465383445055    0.000370393174153003    0.000277465383445055      -0.623439614123996       0.774609819637343
                 27096.2       -0.62136093593698       0.776232477944004    0.000377197485751488     0.00028094913007446    0.000377197485751488     0.00028094913007446       -0.62136093593698       0.776232477944004
                   27098      -0.619264893085341       0.777859568006742    0.000384143365441584    0.000284476054634631    0.000384143365441584    0.000284476054634631      -0.619264893085341       0.777859568006742
                 27099.8      -0.617151289687139       0.779491070804439     0.00039123408718429    0.000288046518027692     0.00039123408718429    0.000288046518027692      -0.617151289687139       0.779491070804439
                 27101.6      -0.615019927070592         0.7811269661874    0.000398473007604255    0.000291660873856758    0.000398473007604255    0.000291660873856758      -0.615019927070592         0.7811269661874
                 27103.4      -0.612870603726143       0.782767232842736    0.000405863568224315    0.000295319467731915    0.000405863568224315    0.000295319467731915      -0.612870603726143       0.782767232842736
                 27105.2      -0.610703115257611       0.784411848258667    0.000413409297762942    0.000299022636538842    0.000413409297762942    0.000299022636538842      -0.610703115257611       0.784411848258667
                   27107      -0.608517254332337       0.786060788687764    0.000421113814496602    0.000302770707668376    0.000421113814496602    0.000302770707668376      -0.608517254332337       0.786060788687764
                 27108.8      -0.606312810630358        0.78771402910904    0.000428980828688625    0.000306563998205021    0.000428980828688625    0.000306563998205021      -0.606312810630358        0.78771402910904
                 27110.6      -0.604089570792522       0.789371543188922    0.000437014145086705    0.000310402814072529    0.000437014145086705    0.000310402814072529      -0.604089570792522       0.789371543188922
                 27112.4      -0.601847318367604       0.791033303240977    0.000445217665490643    0.000314287449134337    0.000445217665490643    0.000314287449134337      -0.601847318367604       0.791033303240977
                 27114.2      -0.599585833758301       0.792699280184458    0.000453595391392669     0.00031821818424686    0.000453595391392669     0.00031821818424686      -0.599585833758301       0.792699280184458
                   27116      -0.597304894166182       0.794369443501524    0.000462151426691952    0.000322195286263159    0.000462151426691952    0.000322195286263159      -0.597304894166182       0.794369443501524
                 27117.8      -0.595004273535484       0.796043761193174    0.000470889980485697    0.000326219006984768    0.000470889980485697    0.000326219006984768      -0.595004273535484       0.796043761193174
                 27119.6      -0.592683742495779       0.797722199733806    0.000479815369938744    0.000330289582059075    0.000479815369938744    0.000330289582059075      -0.592683742495779       0.797722199733806
                 27121.4      -0.590343068303486       0.799404724024354    0.000488932023233833    0.000334407229819639    0.000488932023233833    0.000334407229819639      -0.590343068303486       0.799404724024354
                 27123.2      -0.587982014782162       0.801091297343993    0.000498244482604836    0.000338572150066744    0.000498244482604836    0.000338572150066744      -0.587982014782162       0.801091297343993
                   27125      -0.585600342261571       0.802781881300327    0.000507757407455224     0.00034278452278531    0.000507757407455224     0.00034278452278531      -0.585600342261571       0.802781881300327
                 27126.8      -0.583197807515529       0.804476435778012    0.000517475577563836     0.00034704450679703    0.000517475577563836     0.00034704450679703      -0.583197807515529       0.804476435778012
                 27128.6      -0.580774163698442       0.806174918885782     0.00052740389638063    0.000351352238343738     0.00052740389638063    0.000351352238343738      -0.580774163698442       0.806174918885782
                 27130.4      -0.578329160280547       0.807877286901807    0.000537547394414616    0.000355707829598584    0.000537547394414616    0.000355707829598584      -0.578329160280547       0.807877286901807
                 27132.2      -0.575862542981814       0.809583494217322    0.000547911232716434    0.000360111367101559    0.000547911232716434    0.000360111367101559      -0.575862542981814       0.809583494217322
                   27134      -0.573374053704453       0.811293493278502    0.000558500706458288    0.000364562910115828    0.000558500706458288    0.000364562910115828      -0.573374053704453       0.811293493278502
                 27135.8      -0.570863430464088       0.813007234526446     0.00056932124861328    0.000369062488900835     0.00056932124861328    0.000369062488900835      -0.570863430464088       0.813007234526446
                 27137.6      -0.568330407319402       0.814724666335318    0.000580378433737502    0.000373610102898523    0.000580378433737502    0.000373610102898523      -0.568330407319402       0.814724666335318
                 27139.4      -0.565774714300393       0.816445734948466    0.000591677981856755    0.000378205718828149    0.000591677981856755    0.000378205718828149      -0.565774714300393       0.816445734948466
                 27141.2      -0.563196077335109       0.818170384412516    0.000603225762461039    0.000382849268685512    0.000603225762461039    0.000382849268685512      -0.563196077335109       0.818170384412516
                   27143      -0.560594218174813       0.819898556509379     0.00061502779860955    0.000387540647641995     0.00061502779860955    0.000387540647641995      -0.560594218174813       0.819898556509379