! TOUCHSTONE file generated by CST MICROWAVE STUDIO
! Date and time: Thu Mar 12 11:40:53 2026
! Project name: ERV-KuCMUXT1-BPFC1 Rev.0.3-1.0#ƯÄ̀. Ñáîđêà.cst
! Parameters = {cavity_h=19; cavity_l0=10; cavity_l1=17.9702; cavity_l2=19.8539; cavity_l3=20.312; cavity_l4=20.4013; cavity_l5=20.6797; cavity_r=2.5; cavity_screw_l=0.5; cavity_screw_r=1.5; cavity_w=9.5; iris_h00=0; iris_h01=10.25; iris_h110=0; iris_h12=6.42; iris_h23=5.85; iris_h29=4.11; iris_h34=5.59; iris_h38=5.25; iris_h45=5.29; iris_h47=5; iris_h56=7.87; iris_rx=0.1; iris_screw_l=0.4; iris_screw_r=1.5; iris_shift00=0; iris_shift110=0; iris_shift12=0; iris_shift29=4.25; iris_shift38=0; iris_shift47=0; iris_shift56=4.25; iris_tx=4.5; iris_tz=4.5; iris_w00=0; iris_w110=0; iris_w29=4; iris_w38=5.25; iris_w47=5; iris_w56=4; mesh_cavity=7; mesh_iris=8; mesh_screw=8; order=10; reset_all=0; sigma=4.6e+07}
! Header version: 2024
! Port assignment regex: !\s*Touchstone port\s*([0-9]+)\s*=\s*(CST MWS port|CST DES external port|CST DES block port)\s*(.+)\s* \(\"(.*)\"\)(\s*mode\s*([0-9]+))?.*
! Touchstone port assignment:
! Touchstone port 1 = CST MWS port 1 ("")
! Touchstone port 2 = CST MWS port 2 ("")
# GHz S RI R 50
10.6                -0.980915091     0.142466997   8.56689611e-06  4.77666407e-05   8.56691387e-06   4.7766617e-05      -0.98091785     0.142438699
10.60009            -0.980817567     0.143087286   8.62322108e-06  4.79008075e-05   8.62323873e-06  4.79007839e-05     -0.980820293     0.143059312
10.60018            -0.980719526     0.143708239   8.67985225e-06  4.80354197e-05   8.67986997e-06  4.80353962e-05     -0.980722226     0.143680551
10.60027            -0.980620968     0.144329844   8.73679061e-06  4.81704782e-05   8.73680829e-06  4.81704545e-05     -0.980623647     0.144302421
10.60036            -0.980521895     0.144952088    8.7940377e-06  4.83059819e-05   8.79405537e-06  4.83059583e-05     -0.980524553     0.144924925
10.60045            -0.980422308     0.145574959   8.85159401e-06  4.84419311e-05   8.85161163e-06  4.84419077e-05     -0.980424943     0.145548067
10.60054            -0.980322205     0.146198458   8.90946194e-06  4.85783277e-05   8.90947961e-06   4.8578304e-05     -0.980324814      0.14617185
10.60063            -0.980221584     0.146822595   8.96764305e-06  4.87151744e-05   8.96766066e-06  4.87151507e-05     -0.980224165     0.146796271
10.60072            -0.980120441      0.14744737   9.02613942e-06  4.88524721e-05   9.02615694e-06  4.88524487e-05     -0.980122996     0.147421332
10.60081            -0.980018777     0.148072787   9.08495277e-06  4.89902236e-05   9.08497036e-06  4.89901999e-05     -0.980021304     0.148047035
10.6009             -0.979916589     0.148698844   9.14408482e-06    4.912843e-05   9.14410236e-06  4.91284063e-05     -0.979919088     0.148673379
10.60099            -0.979813875     0.149325544   9.20353755e-06  4.92670929e-05   9.20355518e-06  4.92670693e-05     -0.979816345     0.149300368
10.60108            -0.979710634     0.149952888   9.26331243e-06  4.94062139e-05   9.26332987e-06  4.94061903e-05     -0.979713075     0.149928001
10.60117            -0.979606865     0.150580877   9.32341137e-06  4.95457951e-05   9.32342886e-06  4.95457714e-05     -0.979609276     0.150556279
10.60126            -0.979502565     0.151209512   9.38383627e-06  4.96858381e-05   9.38385382e-06  4.96858144e-05     -0.979504946     0.151185205
10.60135            -0.979397733     0.151838794   9.44458892e-06  4.98263444e-05   9.44460652e-06  4.98263206e-05     -0.979400083     0.151814778
10.60144            -0.979292368     0.152468724   9.50567122e-06  4.99673156e-05   9.50568868e-06  4.99672921e-05     -0.979294687     0.152445001
10.60153            -0.979186467     0.153099304   9.56708508e-06  5.01087538e-05   9.56710241e-06  5.01087303e-05     -0.979188754     0.153075874
10.60162            -0.979080029     0.153730535   9.62883208e-06  5.02506608e-05   9.62884946e-06   5.0250637e-05     -0.979082284     0.153707399
10.60171            -0.978973053     0.154362417   9.69091427e-06  5.03930378e-05   9.69093171e-06  5.03930141e-05     -0.978975275     0.154339577
10.6018             -0.978865536     0.154994953    9.7533334e-06  5.05358869e-05   9.75335127e-06   5.0535863e-05     -0.978867725     0.154972408
10.60189            -0.978757478     0.155628142   9.81609159e-06  5.06792095e-05   9.81610911e-06  5.06791857e-05     -0.978759632     0.155605894
10.60198            -0.978648875     0.156261987   9.87919108e-06  5.08230078e-05    9.8792083e-06  5.08229841e-05     -0.978650995     0.156240037
10.60207            -0.978539727     0.156896488   9.94263257e-06  5.09672837e-05    9.9426499e-06  5.09672598e-05     -0.978541813     0.156874837
10.60216            -0.978430033     0.157531647   1.00064192e-05   5.1112038e-05   1.00064365e-05  5.11120142e-05     -0.978432082     0.157510295
10.60225            -0.978319789     0.158167465   1.00705524e-05  5.12572735e-05   1.00705697e-05  5.12572496e-05     -0.978321803     0.158146413
10.60234            -0.978208995     0.158803942   1.01350341e-05  5.14029914e-05   1.01350514e-05  5.14029676e-05     -0.978210972     0.158783193
10.60243            -0.978097648     0.159441081   1.01998666e-05  5.15491939e-05    1.0199884e-05  5.15491698e-05     -0.978099588     0.159420634
10.60252            -0.977985748     0.160078882   1.02650517e-05  5.16958824e-05   1.02650689e-05  5.16958584e-05      -0.97798765     0.160058738
10.60261            -0.977873292     0.160717347    1.0330591e-05  5.18430587e-05   1.03306083e-05  5.18430347e-05     -0.977875156     0.160697507
10.6027             -0.977760278     0.161356477    1.0396487e-05   5.1990725e-05   1.03965042e-05  5.19907008e-05     -0.977762103     0.161336942
10.60279            -0.977646706     0.161996272   1.04627415e-05  5.21388825e-05   1.04627589e-05  5.21388585e-05     -0.977648491     0.161977043
10.60288            -0.977532572     0.162636735   1.05293566e-05  5.22875335e-05    1.0529374e-05  5.22875095e-05     -0.977534318     0.162617813
10.60297            -0.977417876     0.163277866   1.05963344e-05    5.243668e-05   1.05963517e-05  5.24366559e-05     -0.977419581     0.163259252
10.60306            -0.977302615     0.163919666   1.06636765e-05  5.25863234e-05   1.06636941e-05  5.25862991e-05     -0.977304279     0.163901361
10.60315            -0.977186788     0.164562137    1.0731386e-05  5.27364655e-05    1.0731403e-05  5.27364414e-05      -0.97718841     0.164544142
10.60324            -0.977070393      0.16520528   1.07994636e-05  5.28871085e-05   1.07994808e-05  5.28870842e-05     -0.977071973     0.165187595
10.60333            -0.976953428     0.165849096   1.08679125e-05  5.30382538e-05   1.08679297e-05  5.30382297e-05     -0.976954965     0.165831723
10.60342            -0.976835891     0.166493586   1.09367341e-05  5.31899038e-05   1.09367513e-05  5.31898797e-05     -0.976837385     0.166476526
10.60351            -0.976717781     0.167138752   1.10059312e-05    5.334206e-05   1.10059481e-05  5.33420358e-05     -0.976719231     0.167122006
10.6036             -0.976599096     0.167784595    1.1075505e-05  5.34947247e-05   1.10755223e-05  5.34947005e-05     -0.976600501     0.167768163
10.60369            -0.976479833     0.168431115   1.11454584e-05  5.36478992e-05   1.11454756e-05   5.3647875e-05     -0.976481193     0.168414999
10.60378            -0.976359992     0.169078315   1.12157932e-05  5.38015855e-05   1.12158103e-05  5.38015614e-05     -0.976361306     0.169062515
10.60387             -0.97623957     0.169726195   1.12865117e-05  5.39557859e-05   1.12865289e-05  5.39557618e-05     -0.976240837     0.169710712
10.60396            -0.976118565     0.170374757   1.13576161e-05  5.41105018e-05   1.13576333e-05  5.41104777e-05     -0.976119785     0.170359592
10.60405            -0.975996976     0.171024001   1.14291088e-05  5.42657355e-05   1.14291257e-05  5.42657112e-05     -0.975998149     0.171009156
10.60414            -0.975874801     0.171673929   1.15009914e-05  5.44214888e-05   1.15010086e-05  5.44214643e-05     -0.975875925     0.171659405
10.60423            -0.975752037     0.172324543   1.15732665e-05  5.45777636e-05   1.15732835e-05  5.45777391e-05     -0.975753113      0.17231034
10.60432            -0.975628683     0.172975843   1.16459362e-05  5.47345616e-05   1.16459532e-05  5.47345373e-05     -0.975629709     0.172961962
10.60441            -0.975504738     0.173627831   1.17190028e-05  5.48918852e-05     1.171902e-05   5.4891861e-05     -0.975505714     0.173614273
10.6045             -0.975380199     0.174280508   1.17924689e-05  5.50497363e-05    1.1792486e-05  5.50497119e-05     -0.975381124     0.174267275
10.60459            -0.975255064     0.174933875   1.18663363e-05  5.52081164e-05   1.18663534e-05   5.5208092e-05     -0.975255937     0.174920967
10.60468            -0.975129331     0.175587934   1.19406074e-05  5.53670277e-05   1.19406242e-05  5.53670034e-05     -0.975130153     0.175575352
10.60477            -0.975002999     0.176242685   1.20152845e-05  5.55264724e-05   1.20153015e-05  5.55264479e-05     -0.975003768      0.17623043
10.60486            -0.974876066      0.17689813   1.20903699e-05  5.56864522e-05    1.2090387e-05  5.56864277e-05     -0.974876781     0.176886203
10.60495            -0.974748529      0.17755427   1.21658663e-05  5.58469689e-05   1.21658832e-05  5.58469446e-05     -0.974749191     0.177542673
10.60504            -0.974620387     0.178211107   1.22417752e-05  5.60080253e-05   1.22417924e-05  5.60080007e-05     -0.974620994      0.17819984
10.60513            -0.974491638     0.178868641      1.23181e-05  5.61696225e-05    1.2318117e-05   5.6169598e-05     -0.974492189     0.178857705
10.60522            -0.974362279     0.179526874   1.23948425e-05  5.63317629e-05   1.23948596e-05  5.63317383e-05     -0.974362775     0.179516271
10.60531             -0.97423231     0.180185808    1.2472005e-05  5.64944483e-05   1.24720218e-05  5.64944239e-05     -0.974232749     0.180175537
10.6054             -0.974101727     0.180845442   1.25495899e-05  5.66576815e-05   1.25496068e-05   5.6657657e-05     -0.974102109     0.180835506
10.60549             -0.97397053      0.18150578      1.26276e-05  5.68214634e-05    1.2627617e-05  5.68214391e-05     -0.973970853     0.181496179
10.60558            -0.973838715     0.182166821   1.27060374e-05  5.69857968e-05   1.27060542e-05  5.69857724e-05      -0.97383898     0.182157557
10.60567            -0.973706282     0.182828568   1.27849047e-05  5.71506836e-05   1.27849216e-05  5.71506588e-05     -0.973706487     0.182819641
10.60576            -0.973573227     0.183491021   1.28642041e-05  5.73161256e-05   1.28642211e-05   5.7316101e-05     -0.973573373     0.183482433
10.60585            -0.973439549     0.184154182   1.29439383e-05  5.74821251e-05   1.29439553e-05  5.74821005e-05     -0.973439634     0.184145933
10.60594            -0.973305247     0.184818052   1.30241102e-05   5.7648684e-05   1.30241268e-05  5.76486595e-05      -0.97330527     0.184810143
10.60603            -0.973170317     0.185482632   1.31047212e-05  5.78158051e-05   1.31047381e-05  5.78157803e-05     -0.973170279     0.185475065
10.60612            -0.973034759     0.186147924   1.31857746e-05  5.79834892e-05   1.31857915e-05  5.79834646e-05     -0.973034657       0.1861407
10.60621            -0.972898569     0.186813928    1.3267273e-05  5.81517392e-05   1.32672899e-05  5.81517143e-05     -0.972898404     0.186807048
10.6063             -0.972761746     0.187480647   1.33492189e-05  5.83205568e-05   1.33492356e-05  5.83205325e-05     -0.972761517     0.187474111
10.60639            -0.972624288     0.188148081   1.34316143e-05   5.8489945e-05   1.34316313e-05  5.84899202e-05     -0.972623994     0.188141891
10.60648            -0.972486192     0.188816232   1.35144628e-05  5.86599049e-05   1.35144793e-05  5.86598802e-05     -0.972485833     0.188810389
10.60657            -0.972347458     0.189485101    1.3597766e-05  5.88304389e-05   1.35977827e-05  5.88304142e-05     -0.972347032     0.189479606
10.60666            -0.972208082     0.190154689   1.36815271e-05  5.90015494e-05   1.36815438e-05  5.90015247e-05     -0.972207589     0.190149543
10.60675            -0.972068062     0.190824998   1.37657482e-05  5.91732386e-05   1.37657651e-05  5.91732138e-05     -0.972067501     0.190820202
10.60684            -0.971927397     0.191496029   1.38504328e-05  5.93455081e-05   1.38504495e-05  5.93454834e-05     -0.971926768     0.191491584
10.60693            -0.971786085     0.192167783   1.39355828e-05  5.95183605e-05   1.39355996e-05  5.95183356e-05     -0.971785386      0.19216369
10.60702            -0.971644122     0.192840261   1.40212011e-05  5.96917979e-05   1.40212179e-05  5.96917731e-05     -0.971643353     0.192836521
10.60711            -0.971501508     0.193513465   1.41072907e-05  5.98658221e-05   1.41073073e-05  5.98657974e-05     -0.971500668      0.19351008
10.6072              -0.97135824     0.194187396   1.41938539e-05  6.00404362e-05   1.41938704e-05  6.00404112e-05     -0.971357328     0.194184366
10.60729            -0.971214315     0.194862056   1.42808934e-05  6.02156414e-05   1.42809101e-05  6.02156166e-05     -0.971213332     0.194859383
10.60738            -0.971069732     0.195537445   1.43684124e-05  6.03914403e-05   1.43684291e-05  6.03914153e-05     -0.971068676      0.19553513
10.60747            -0.970924489     0.196213566   1.44564133e-05  6.05678352e-05   1.44564302e-05    6.056781e-05     -0.970923359     0.196211609
10.60756            -0.970778583     0.196890419   1.45448991e-05  6.07448282e-05   1.45449158e-05  6.07448033e-05     -0.970777378     0.196888821
10.60765            -0.970632013     0.197568005   1.46338722e-05  6.09224215e-05   1.46338891e-05  6.09223965e-05     -0.970630732     0.197566769
10.60774            -0.970484775     0.198246326   1.47233361e-05  6.11006171e-05   1.47233527e-05  6.11005922e-05     -0.970483418     0.198245452
10.60783            -0.970336868     0.198925384   1.48132929e-05  6.12794177e-05   1.48133097e-05  6.12793926e-05     -0.970335435     0.198924873
10.60792             -0.97018829      0.19960518    1.4903746e-05  6.14588255e-05   1.49037626e-05  6.14588003e-05     -0.970186779     0.199605033
10.60801            -0.970039039     0.200285714   1.49946978e-05  6.16388424e-05   1.49947146e-05  6.16388172e-05     -0.970037449     0.200285933
10.6081             -0.969889111     0.200966989   1.50861518e-05  6.18194709e-05   1.50861687e-05  6.18194457e-05     -0.969887442     0.200967574
10.60819            -0.969738506     0.201649005   1.51781105e-05  6.20007134e-05    1.5178127e-05  6.20006882e-05     -0.969736757     0.201649958
10.60828             -0.96958722     0.202331764   1.52705765e-05  6.21825717e-05   1.52705932e-05  6.21825466e-05      -0.96958539     0.202333086
10.60837            -0.969435252     0.203015268   1.53635533e-05  6.23650487e-05   1.53635698e-05  6.23650234e-05     -0.969433341      0.20301696
10.60846              -0.9692826     0.203699517   1.54570439e-05  6.25481462e-05   1.54570603e-05  6.25481209e-05     -0.969280605      0.20370158
10.60855             -0.96912926     0.204384513   1.55510507e-05  6.27318666e-05   1.55510673e-05  6.27318413e-05     -0.969127182     0.204386948
10.60864            -0.968975231     0.205070258    1.5645577e-05  6.29162127e-05   1.56455937e-05  6.29161873e-05     -0.968973069     0.205073067
10.60873            -0.968820511     0.205756752   1.57406262e-05   6.3101186e-05   1.57406427e-05  6.31011608e-05     -0.968818264     0.205759935
10.60882            -0.968665096     0.206443998   1.58362008e-05  6.32867894e-05   1.58362172e-05  6.32867641e-05     -0.968662764     0.206447556
10.60891            -0.968508986     0.207131995   1.59323039e-05  6.34730253e-05   1.59323203e-05      6.3473e-05     -0.968506567     0.207135931
10.609              -0.968352177     0.207820747    1.6028939e-05  6.36598956e-05   1.60289552e-05  6.36598705e-05      -0.96834967     0.207825061
10.60909            -0.968194668     0.208510254   1.61261086e-05  6.38474028e-05    1.6126125e-05  6.38473777e-05     -0.968192072     0.208514946
10.60918            -0.968036455     0.209200517   1.62238161e-05  6.40355498e-05   1.62238328e-05  6.40355243e-05     -0.968033771      0.20920559
10.60927            -0.967877537     0.209891538   1.63220647e-05  6.42243382e-05   1.63220811e-05  6.42243129e-05     -0.967874763     0.209896993
10.60936            -0.967717912     0.210583318   1.64208576e-05  6.44137711e-05   1.64208741e-05  6.44137456e-05     -0.967715046     0.210589155
10.60945            -0.967557576     0.211275859   1.65201978e-05  6.46038502e-05   1.65202144e-05  6.46038246e-05     -0.967554618      0.21128208
10.60954            -0.967396528     0.211969161   1.66200884e-05  6.47945782e-05   1.66201045e-05   6.4794553e-05     -0.967393477     0.211975768
10.60963            -0.967234765     0.212663227    1.6720533e-05  6.49859575e-05   1.67205494e-05  6.49859321e-05     -0.967231621      0.21267022
10.60972            -0.967072285     0.213358058   1.68215345e-05  6.51779908e-05   1.68215508e-05  6.51779652e-05     -0.967069046     0.213365439
10.60981            -0.966909085     0.214053655    1.6923096e-05  6.53706799e-05   1.69231124e-05  6.53706545e-05     -0.966905751     0.214061424
10.6099             -0.966745163     0.214750019   1.70252214e-05   6.5564028e-05   1.70252376e-05  6.55640025e-05     -0.966741733     0.214758178
10.60999            -0.966580517     0.215447152   1.71279133e-05   6.5758037e-05   1.71279297e-05  6.57580113e-05      -0.96657699     0.215455703
10.61008            -0.966415144     0.216145056   1.72311751e-05  6.59527097e-05   1.72311913e-05  6.59526842e-05     -0.966411518     0.216153998
10.61017            -0.966249042     0.216843731   1.73350106e-05  6.61480482e-05   1.73350271e-05  6.61480225e-05     -0.966245317     0.216853067
10.61026            -0.966082208     0.217543179   1.74394229e-05  6.63440547e-05   1.74394392e-05  6.63440294e-05     -0.966078383      0.21755291
10.61035            -0.965914639     0.218243401   1.75444152e-05  6.65407327e-05   1.75444315e-05  6.65407072e-05     -0.965910714     0.218253528
10.61044            -0.965746335     0.218944399   1.76499912e-05   6.6738084e-05   1.76500076e-05  6.67380582e-05     -0.965742307     0.218954923
10.61053            -0.965577291     0.219646175    1.7756154e-05   6.6936111e-05   1.77561701e-05  6.69360856e-05     -0.965573161     0.219657097
10.61062            -0.965407505     0.220348729   1.78629073e-05  6.71348165e-05   1.78629235e-05   6.7134791e-05     -0.965403271     0.220360051
10.61071            -0.965236975     0.221052063   1.79702545e-05  6.73342028e-05   1.79702707e-05  6.73341772e-05     -0.965232637     0.221063786
10.6108             -0.965065699     0.221756178   1.80781987e-05  6.75342727e-05    1.8078215e-05   6.7534247e-05     -0.965061255     0.221768304
10.61089            -0.964893674     0.222461076    1.8186744e-05  6.77350285e-05     1.818676e-05  6.77350031e-05     -0.964889124     0.222473605
10.61098            -0.964720897     0.223166759   1.82958937e-05  6.79364728e-05   1.82959099e-05   6.7936447e-05     -0.964716239     0.223179692
10.61107            -0.964547366     0.223873227   1.84056512e-05   6.8138608e-05   1.84056674e-05  6.81385824e-05     -0.964542599     0.223886567
10.61116            -0.964373078     0.224580482   1.85160201e-05  6.83414371e-05   1.85160361e-05  6.83414116e-05     -0.964368202     0.224594229
10.61125            -0.964198031     0.225288526   1.86270041e-05  6.85449624e-05   1.86270204e-05  6.85449365e-05     -0.964193045     0.225302681
10.61134            -0.964022222     0.225997359    1.8738607e-05  6.87491863e-05    1.8738623e-05  6.87491606e-05     -0.964017124     0.226011924
10.61143            -0.963845648     0.226706984   1.88508318e-05   6.8954112e-05   1.88508478e-05  6.89540861e-05     -0.963840438      0.22672196
10.61152            -0.963668308     0.227417402   1.89636828e-05   6.9159741e-05   1.89636988e-05  6.91597152e-05     -0.963662985      0.22743279
10.61161            -0.963490198     0.228128614   1.90771634e-05   6.9366077e-05   1.90771794e-05   6.9366051e-05      -0.96348476     0.228144416
10.6117             -0.963311316     0.228840621   1.91912775e-05   6.9573122e-05   1.91912934e-05  6.95730961e-05     -0.963305763     0.228856838
10.61179            -0.963131659     0.229553426   1.93060285e-05  6.97808793e-05   1.93060446e-05   6.9780853e-05     -0.963125989     0.229570059
10.61188            -0.962951224     0.230267029   1.94214204e-05  6.99893503e-05   1.94214365e-05  6.99893243e-05     -0.962945437     0.230284079
10.61197            -0.962770009     0.230981432   1.95374567e-05  7.01985385e-05   1.95374728e-05  7.01985126e-05     -0.962764104     0.230998901
10.61206            -0.962588012     0.231696636   1.96541418e-05  7.04084468e-05   1.96541577e-05  7.04084208e-05     -0.962581987     0.231714525
10.61215            -0.962405229     0.232412643    1.9771479e-05  7.06190772e-05   1.97714949e-05  7.06190513e-05     -0.962399083     0.232430954
10.61224            -0.962221658     0.233129454   1.98894722e-05  7.08304328e-05   1.98894879e-05  7.08304067e-05     -0.962215391     0.233148188
10.61233            -0.962037296     0.233847071   2.00081252e-05  7.10425163e-05   2.00081413e-05  7.10424901e-05     -0.962030906     0.233866229
10.61242            -0.961852141     0.234565495   2.01274424e-05  7.12553299e-05   2.01274582e-05  7.12553038e-05     -0.961845627     0.234585078
10.61251            -0.961666189     0.235284728   2.02474272e-05  7.14688769e-05   2.02474432e-05  7.14688508e-05      -0.96165955     0.235304738
10.6126             -0.961479438     0.236004771   2.03680837e-05  7.16831594e-05   2.03680997e-05  7.16831333e-05     -0.961472674     0.236025208
10.61269            -0.961291886     0.236725625   2.04894159e-05  7.18981808e-05   2.04894317e-05  7.18981548e-05     -0.961284995     0.236746492
10.61278            -0.961103529     0.237447292    2.0611428e-05  7.21139432e-05   2.06114437e-05  7.21139172e-05      -0.96109651      0.23746859
10.61287            -0.960914365     0.238169774   2.07341235e-05  7.23304499e-05   2.07341393e-05  7.23304237e-05     -0.960907217     0.238191504
10.61296            -0.960724392     0.238893072   2.08575069e-05  7.25477034e-05   2.08575228e-05  7.25476773e-05     -0.960717113     0.238915235
10.61305            -0.960533605     0.239617187   2.09815821e-05  7.27657063e-05   2.09815979e-05  7.27656803e-05     -0.960526195     0.239639784
10.61314            -0.960342003     0.240342121   2.11063532e-05  7.29844616e-05   2.11063689e-05  7.29844351e-05      -0.96033446     0.240365154
10.61323            -0.960149582     0.241067875   2.12318244e-05  7.32039719e-05   2.12318404e-05  7.32039455e-05     -0.960141906     0.241091346
10.61332            -0.959956341     0.241794451       2.1358e-05  7.34242398e-05   2.13580157e-05  7.34242135e-05      -0.95994853     0.241818361
10.61341            -0.959762275      0.24252185   2.14848839e-05  7.36452688e-05   2.14848996e-05  7.36452426e-05     -0.959754328       0.2425462
10.6135             -0.959567382     0.243250074   2.16124802e-05   7.3867061e-05   2.16124961e-05  7.38670345e-05     -0.959559299     0.243274866
10.61359             -0.95937166     0.243979124   2.17407935e-05  7.40896195e-05   2.17408094e-05  7.40895932e-05     -0.959363439     0.244004359
10.61368            -0.959175105     0.244709002    2.1869828e-05  7.43129468e-05   2.18698437e-05  7.43129204e-05     -0.959166745     0.244734681
10.61377            -0.958977715     0.245439709   2.19995876e-05  7.45370464e-05   2.19996034e-05  7.45370201e-05     -0.958969214     0.245465834
10.61386            -0.958779487     0.246171246   2.21300773e-05  7.47619205e-05    2.2130093e-05  7.47618941e-05     -0.958770844     0.246197819
10.61395            -0.958580417     0.246903616   2.22613005e-05  7.49875725e-05   2.22613162e-05  7.49875461e-05     -0.958571631     0.246930637
10.61404            -0.958380503      0.24763682   2.23932625e-05  7.52140049e-05   2.23932783e-05  7.52139784e-05     -0.958371574     0.247664291
10.61413            -0.958179742     0.248370859    2.2525967e-05  7.54412207e-05   2.25259829e-05   7.5441194e-05     -0.958170668     0.248398781
10.61422            -0.957978131     0.249105734    2.2659419e-05  7.56692222e-05   2.26594347e-05  7.56691957e-05      -0.95796891     0.249134109
10.61431            -0.957775667     0.249841447   2.27936227e-05  7.58980132e-05   2.27936384e-05  7.58979867e-05     -0.957766299     0.249870277
10.6144             -0.957572348     0.250578001   2.29285823e-05  7.61275964e-05   2.29285979e-05  7.61275697e-05      -0.95756283     0.250607286
10.61449            -0.957368169     0.251315395   2.30643028e-05  7.63579742e-05   2.30643182e-05  7.63579475e-05     -0.957358502     0.251345137
10.61458            -0.957163128     0.252053632   2.32007883e-05  7.65891496e-05   2.32008038e-05  7.65891232e-05      -0.95715331     0.252083833
10.61467            -0.956957223     0.252792713   2.33380437e-05  7.68211263e-05   2.33380593e-05  7.68210998e-05     -0.956947252     0.252823374
10.61476            -0.956750449      0.25353264   2.34760734e-05  7.70539068e-05   2.34760891e-05  7.70538803e-05     -0.956740325     0.253563762
10.61485            -0.956542805     0.254273415   2.36148823e-05  7.72874935e-05   2.36148975e-05  7.72874669e-05     -0.956532526     0.254304999
10.61494            -0.956334287     0.255015038   2.37544745e-05  7.75218903e-05   2.37544899e-05  7.75218637e-05     -0.956323851     0.255047087
10.61503            -0.956124891     0.255757511   2.38948551e-05  7.77570988e-05   2.38948707e-05  7.77570723e-05     -0.956114299     0.255790026
10.61512            -0.955914616     0.256500836   2.40360291e-05  7.79931237e-05   2.40360445e-05  7.79930968e-05     -0.955903864     0.256533818
10.61521            -0.955703457     0.257245014   2.41780007e-05  7.82299668e-05   2.41780163e-05  7.82299401e-05     -0.955692546     0.257278465
10.6153             -0.955491412     0.257990047   2.43207747e-05  7.84676315e-05   2.43207904e-05  7.84676049e-05      -0.95548034     0.258023968
10.61539            -0.955278478     0.258735937   2.44643565e-05   7.8706121e-05   2.44643719e-05  7.87060941e-05     -0.955267243     0.258770329
10.61548            -0.955064651     0.259482684     2.460875e-05  7.89454375e-05   2.46087653e-05  7.89454108e-05     -0.955053252      0.25951755
10.61557            -0.954849929     0.260230291   2.47539612e-05  7.91855849e-05   2.47539766e-05   7.9185558e-05     -0.954838365     0.260265631
10.61566            -0.954634307     0.260978759   2.48999938e-05   7.9426566e-05   2.49000093e-05   7.9426539e-05     -0.954622577     0.261014575
10.61575            -0.954417784     0.261728089   2.50468541e-05  7.96683838e-05   2.50468691e-05   7.9668357e-05     -0.954405886     0.261764383
10.61584            -0.954200356     0.262478283   2.51945456e-05   7.9911041e-05   2.51945609e-05  7.99110141e-05     -0.954188288     0.262515057
10.61593            -0.953982019     0.263229343   2.53430742e-05  8.01545413e-05   2.53430893e-05  8.01545146e-05     -0.953969781     0.263266597
10.61602            -0.953762771      0.26398127   2.54924448e-05  8.03988875e-05   2.54924603e-05  8.03988605e-05     -0.953750361     0.264019006
10.61611            -0.953542608     0.264734066   2.56426625e-05  8.06440824e-05   2.56426775e-05  8.06440555e-05     -0.953530025     0.264772286
10.6162             -0.953321527     0.265487732    2.5793732e-05  8.08901296e-05   2.57937473e-05  8.08901026e-05      -0.95330877     0.265526437
10.61629            -0.953099525      0.26624227   2.59456587e-05  8.11370319e-05   2.59456741e-05  8.11370049e-05     -0.953086592     0.266281461
10.61638            -0.952876598     0.266997681   2.60984479e-05  8.13847923e-05   2.60984633e-05  8.13847652e-05     -0.952863488     0.267037361
10.61647            -0.952652744     0.267753967   2.62521049e-05  8.16334142e-05     2.625212e-05  8.16333871e-05     -0.952639455     0.267794137
10.61656            -0.952427958     0.268511129   2.64066344e-05  8.18829007e-05   2.64066496e-05  8.18828736e-05     -0.952414489      0.26855179
10.61665            -0.952202239      0.26926917    2.6562042e-05   8.2133255e-05   2.65620572e-05  8.21332278e-05     -0.952188588     0.269310324
10.61674            -0.951975581      0.27002809   2.67183329e-05    8.238448e-05    2.6718348e-05  8.23844528e-05     -0.951961748     0.270069738
10.61683            -0.951747983     0.270787891   2.68755128e-05  8.26365787e-05   2.68755279e-05  8.26365516e-05     -0.951733965     0.270830035
10.61692             -0.95151944     0.271548575   2.70335862e-05   8.2889555e-05   2.70336014e-05  8.28895277e-05     -0.951505236     0.271591217
10.61701            -0.951289949     0.272310143   2.71925594e-05  8.31434115e-05   2.71925749e-05  8.31433838e-05     -0.951275559     0.272353284
10.6171             -0.951059508     0.273072597   2.73524376e-05  8.33981514e-05   2.73524526e-05  8.33981241e-05     -0.951044929     0.273116239
10.61719            -0.950828112     0.273835938   2.75132256e-05  8.36537783e-05   2.75132408e-05   8.3653751e-05     -0.950813343     0.273880083
10.61728            -0.950595758     0.274600168   2.76749299e-05  8.39102948e-05    2.7674945e-05  8.39102675e-05     -0.950580797     0.274644817
10.61737            -0.950362443     0.275365289   2.78375554e-05  8.41677047e-05   2.78375705e-05  8.41676772e-05     -0.950347289     0.275410443