! TOUCHSTONE file generated by CST MICROWAVE STUDIO
! Date and time: Wed Jul 31 10:34:30 2024
! Project name: WaveGuide_BPF-Ver4.1_U-shape_Ku_T3_C4_CWA_2.cst
! Header version: 2018
! Touchstone port assignment:
! Touchstone port 1 = CST MWS port 1 ("")
! Touchstone port 2 = CST MWS port 2 ("")
!
! Created with skrf (http://scikit-rf.org).
! Parameters = {cavity_h=16.0; cavity_l0=10.0; cavity_l1=15.2223; cavity_l2=16.8534; cavity_l3=17.1243; cavity_l4=17.257; cavity_l5=17.1229; cavity_l6=17.5688; cavity_r=2.5; cavity_screw_l=0.5; cavity_screw_r=1.5; cavity_w=8.0; iris_h00=0.0; iris_h01=8.8082; iris_h112=0.0; iris_h12=5.6076; iris_h211=3.6561; iris_h23=5.2047; iris_h310=3.9794; iris_h34=5.0897; iris_h45=4.9215; iris_h49=4.618; iris_h56=4.8019; iris_h58=4.4341; iris_h67=6.5748; iris_rx=0.1; iris_screw_l=0.5; iris_screw_r=1.5; iris_shift00=0.0; iris_shift112=0.0; iris_shift211=3.5; iris_shift310=0.0; iris_shift49=0.0; iris_shift58=3.5; iris_shift67=3.5; iris_tx=4.5; iris_tz=4.5; iris_w00=0.0; iris_w112=0.0; iris_w211=4.0; iris_w310=3.9794; iris_w49=4.618; iris_w58=4.0; iris_w67=4.0; mesh_cavity=5.0; mesh_iris=7.0; mesh_screw=7.0; order=12.0; reset_all=0.0; sigma=48000000.0; w=0.5}
# GHz S RI R 50.0 
!freq ReS11 ImS11 ReS21 ImS21 ReS12 ImS12 ReS22 ImS22
12.66 0.383577503 0.899677215 0.000295890882 -0.000153976048 0.000295890882 -0.000153976048 0.388403354 0.897624985
12.660028 0.384025555 0.899466893 0.000296309329 -0.000154395059 0.000296309329 -0.000154395059 0.388851112 0.89741187
12.660056 0.384473845 0.899256168 0.000296728408 -0.00015481522 0.000296728409 -0.00015481522 0.389299009 0.897198391
12.660084 0.384922386 0.899045035 0.00029714811 -0.000155236544 0.00029714811 -0.000155236544 0.389747099 0.896984525
12.660112 0.385371191 0.898833487 0.000297568424 -0.000155659043 0.000297568425 -0.000155659043 0.390195438 0.896770248
12.66014 0.385820272 0.898621519 0.000297989342 -0.000156082728 0.000297989342 -0.000156082727 0.390644079 0.896555536
12.660168 0.386269629 0.89840913 0.000298410862 -0.000156507602 0.000298410863 -0.000156507602 0.391093025 0.896340388
12.660196 0.386719254 0.898196323 0.000298832994 -0.000156933665 0.000298832994 -0.000156933665 0.391542237 0.896124818
12.660224 0.387169148 0.897983095 0.000299255737 -0.000157360919 0.000299255737 -0.000157360919 0.391991717 0.895908826
12.660252 0.38761931 0.897769448 0.000299679092 -0.000157789369 0.000299679093 -0.000157789369 0.392441464 0.89569241
12.66028 0.388069741 0.89755538 0.00030010306 -0.000158219017 0.00030010306 -0.000158219017 0.392891478 0.895475571
12.660308 0.388520441 0.89734089 0.000300527641 -0.000158649867 0.000300527641 -0.000158649867 0.39334176 0.895258306
12.660336 0.388971409 0.897125977 0.000300952836 -0.000159081923 0.000300952836 -0.000159081923 0.393792309 0.895040617
12.660364 0.389422646 0.896910641 0.000301378645 -0.000159515188 0.000301378646 -0.000159515188 0.394243127 0.8948225
12.660392 0.389874152 0.89669488 0.00030180507 -0.000159949667 0.00030180507 -0.000159949667 0.394694212 0.894603957
12.66042 0.390325928 0.896478695 0.000302232109 -0.000160385362 0.00030223211 -0.000160385362 0.395145565 0.894384985
12.660448 0.390777972 0.896262083 0.000302659765 -0.000160822278 0.000302659765 -0.000160822278 0.395597187 0.894165584
12.660476 0.391230287 0.896045045 0.000303088038 -0.000161260417 0.000303088038 -0.000161260417 0.396049077 0.893945754
12.660504 0.391682871 0.895827579 0.000303516928 -0.000161699785 0.000303516928 -0.000161699785 0.396501235 0.893725493
12.660532 0.392135724 0.895609685 0.000303946435 -0.000162140383 0.000303946435 -0.000162140383 0.396953662 0.8935048
12.66056 0.392588848 0.895391361 0.000304376561 -0.000162582217 0.000304376561 -0.000162582217 0.397406358 0.893283675
12.660588 0.393042241 0.895172607 0.000304807306 -0.00016302529 0.000304807306 -0.00016302529 0.397859322 0.893062117
12.660616 0.393495905 0.894953422 0.00030523867 -0.000163469605 0.00030523867 -0.000163469605 0.398312556 0.892840125
12.660644 0.393949838 0.894733806 0.000305670654 -0.000163915166 0.000305670654 -0.000163915166 0.398766058 0.892617698
12.660672 0.394404043 0.894513757 0.000306103259 -0.000164361978 0.000306103259 -0.000164361978 0.39921983 0.892394836
12.6607 0.394858517 0.894293274 0.000306536485 -0.000164810043 0.000306536485 -0.000164810043 0.399673871 0.892171537
12.660728 0.395313263 0.894072357 0.000306970332 -0.000165259366 0.000306970332 -0.000165259366 0.400128182 0.8919478
12.660756 0.395768279 0.893851005 0.000307404802 -0.00016570995 0.000307404802 -0.000165709949 0.400582762 0.891723625
12.660784 0.396223566 0.893629216 0.000307839894 -0.000166161799 0.000307839895 -0.000166161799 0.401037612 0.891499011
12.660812 0.396679124 0.893406991 0.00030827561 -0.000166614917 0.00030827561 -0.000166614917 0.401492732 0.891273958
12.66084 0.397134953 0.893184328 0.00030871195 -0.000167069307 0.00030871195 -0.000167069307 0.401948122 0.891048463
12.660868 0.397591053 0.892961227 0.000309148914 -0.000167524975 0.000309148914 -0.000167524975 0.402403781 0.890822526
12.660896 0.398047425 0.892737686 0.000309586502 -0.000167981922 0.000309586502 -0.000167981922 0.402859711 0.890596147
12.660924 0.398504068 0.892513705 0.000310024716 -0.000168440154 0.000310024717 -0.000168440154 0.403315912 0.890369325
12.660952 0.398960983 0.892289282 0.000310463556 -0.000168899674 0.000310463557 -0.000168899674 0.403772382 0.890142058
12.66098 0.39941817 0.892064417 0.000310903023 -0.000169360486 0.000310903023 -0.000169360486 0.404229124 0.889914346
12.661008 0.399875628 0.89183911 0.000311343116 -0.000169822594 0.000311343117 -0.000169822594 0.404686135 0.889686188
12.661036 0.400333359 0.891613359 0.000311783837 -0.000170286002 0.000311783838 -0.000170286002 0.405143418 0.889457584
12.661064 0.400791361 0.891387163 0.000312225186 -0.000170750713 0.000312225187 -0.000170750713 0.405600972 0.889228531
12.661092 0.401249636 0.891160521 0.000312667164 -0.000171216733 0.000312667164 -0.000171216732 0.406058797 0.888999029
12.66112 0.401708184 0.890933433 0.000313109771 -0.000171684063 0.000313109771 -0.000171684063 0.406516892 0.888769078
12.661148 0.402167003 0.890705898 0.000313553007 -0.000172152709 0.000313553007 -0.000172152709 0.40697526 0.888538677
12.661176 0.402626096 0.890477914 0.000313996873 -0.000172622675 0.000313996873 -0.000172622675 0.407433898 0.888307824
12.661204 0.403085461 0.890249482 0.00031444137 -0.000173093964 0.00031444137 -0.000173093964 0.407892808 0.888076519
12.661232 0.403545099 0.8900206 0.000314886497 -0.000173566581 0.000314886498 -0.000173566581 0.40835199 0.887844761
12.66126 0.40400501 0.889791266 0.000315332257 -0.000174040529 0.000315332257 -0.000174040529 0.408811443 0.887612549
12.661288 0.404465194 0.889561481 0.000315778648 -0.000174515813 0.000315778648 -0.000174515813 0.409271168 0.887379882
12.661316 0.404925651 0.889331244 0.000316225672 -0.000174992436 0.000316225672 -0.000174992436 0.409731166 0.887146759
12.661344 0.405386381 0.889100553 0.000316673329 -0.000175470403 0.000316673329 -0.000175470403 0.410191435 0.88691318
12.661372 0.405847385 0.888869407 0.00031712162 -0.000175949717 0.00031712162 -0.000175949717 0.410651976 0.886679142
12.6614 0.406308663 0.888637806 0.000317570544 -0.000176430383 0.000317570544 -0.000176430383 0.41111279 0.886444647
12.661428 0.406770214 0.888405749 0.000318020103 -0.000176912405 0.000318020103 -0.000176912405 0.411573876 0.886209692
12.661456 0.407232039 0.888173235 0.000318470297 -0.000177395787 0.000318470297 -0.000177395787 0.412035235 0.885974276
12.661484 0.407694138 0.887940263 0.000318921127 -0.000177880532 0.000318921127 -0.000177880532 0.412496867 0.8857384
12.661512 0.408156511 0.887706832 0.000319372592 -0.000178366646 0.000319372592 -0.000178366646 0.412958771 0.885502061
12.66154 0.408619158 0.887472942 0.000319824694 -0.000178854132 0.000319824694 -0.000178854132 0.413420948 0.885265259
12.661568 0.409082079 0.88723859 0.000320277432 -0.000179342995 0.000320277433 -0.000179342995 0.413883398 0.885027994
12.661596 0.409545275 0.887003777 0.000320730808 -0.000179833238 0.000320730809 -0.000179833238 0.414346121 0.884790263
12.661624 0.410008745 0.886768501 0.000321184822 -0.000180324866 0.000321184822 -0.000180324866 0.414809117 0.884552067
12.661652 0.41047249 0.886532762 0.000321639474 -0.000180817882 0.000321639474 -0.000180817882 0.415272387 0.884313404
12.66168 0.410936509 0.886296559 0.000322094765 -0.000181312292 0.000322094765 -0.000181312292 0.41573593 0.884074273
12.661708 0.411400803 0.88605989 0.000322550695 -0.000181808099 0.000322550695 -0.000181808099 0.416199746 0.883834673
12.661736 0.411865372 0.885822755 0.000323007264 -0.000182305308 0.000323007264 -0.000182305308 0.416663836 0.883594605
12.661764 0.412330217 0.885585153 0.000323464474 -0.000182803923 0.000323464474 -0.000182803923 0.4171282 0.883354065
12.661792 0.412795336 0.885347083 0.000323922324 -0.000183303947 0.000323922324 -0.000183303947 0.417592838 0.883113055
12.66182 0.41326073 0.885108544 0.000324380815 -0.000183805386 0.000324380815 -0.000183805386 0.41805775 0.882871572
12.661848 0.4137264 0.884869535 0.000324839947 -0.000184308244 0.000324839947 -0.000184308244 0.418522935 0.882629615
12.661876 0.414192346 0.884630055 0.000325299721 -0.000184812524 0.000325299721 -0.000184812524 0.418988395 0.882387185
12.661904 0.414658567 0.884390103 0.000325760137 -0.000185318232 0.000325760138 -0.000185318232 0.419454129 0.88214428
12.661932 0.415125063 0.884149679 0.000326221196 -0.000185825371 0.000326221197 -0.000185825371 0.419920138 0.881900898
12.66196 0.415591836 0.88390878 0.000326682899 -0.000186333946 0.000326682899 -0.000186333946 0.420386421 0.881657039
12.661988 0.416058884 0.883667408 0.000327145244 -0.000186843962 0.000327145244 -0.000186843961 0.420852979 0.881412703
12.662016 0.416526209 0.883425559 0.000327608234 -0.000187355422 0.000327608234 -0.000187355421 0.421319811 0.881167888
12.662044 0.416993809 0.883183235 0.000328071867 -0.00018786833 0.000328071868 -0.00018786833 0.421786918 0.880922592
12.662072 0.417461686 0.882940432 0.000328536146 -0.000188382693 0.000328536146 -0.000188382693 0.4222543 0.880676816
12.6621 0.417929839 0.882697152 0.00032900107 -0.000188898513 0.00032900107 -0.000188898513 0.422721957 0.880430558
12.662128 0.418398268 0.882453392 0.000329466639 -0.000189415795 0.000329466639 -0.000189415795 0.423189889 0.880183818
12.662156 0.418866974 0.882209152 0.000329932854 -0.000189934544 0.000329932854 -0.000189934544 0.423658096 0.879936594
12.662184 0.419335957 0.88196443 0.000330399716 -0.000190454764 0.000330399716 -0.000190454764 0.424126578 0.879688885
12.662212 0.419805216 0.881719226 0.000330867224 -0.00019097646 0.000330867224 -0.00019097646 0.424595336 0.87944069
12.66224 0.420274752 0.88147354 0.000331335379 -0.000191499636 0.000331335379 -0.000191499636 0.425064369 0.879192009
12.662268 0.420744566 0.881227369 0.000331804182 -0.000192024296 0.000331804182 -0.000192024296 0.425533678 0.87894284
12.662296 0.421214656 0.880980712 0.000332273633 -0.000192550445 0.000332273633 -0.000192550445 0.426003263 0.878693183
12.662324 0.421685023 0.88073357 0.000332743732 -0.000193078088 0.000332743732 -0.000193078088 0.426473123 0.878443036
12.662352 0.422155668 0.880485941 0.000333214479 -0.000193607229 0.00033321448 -0.000193607229 0.426943259 0.878192399
12.66238 0.422626589 0.880237824 0.000333685876 -0.000194137873 0.000333685876 -0.000194137873 0.427413671 0.87794127
12.662408 0.423097789 0.879989217 0.000334157922 -0.000194670024 0.000334157922 -0.000194670024 0.427884359 0.877689649
12.662436 0.423569265 0.879740121 0.000334630618 -0.000195203686 0.000334630618 -0.000195203686 0.428355323 0.877437535
12.662464 0.42404102 0.879490534 0.000335103963 -0.000195738866 0.000335103964 -0.000195738865 0.428826564 0.877184926
12.662492 0.424513052 0.879240455 0.00033557796 -0.000196275566 0.00033557796 -0.000196275566 0.429298081 0.876931822
12.66252 0.424985362 0.878989883 0.000336052607 -0.000196813791 0.000336052607 -0.000196813791 0.429769874 0.876678221
12.662548 0.42545795 0.878738817 0.000336527905 -0.000197353547 0.000336527905 -0.000197353547 0.430241944 0.876424123
12.662576 0.425930816 0.878487256 0.000337003854 -0.000197894838 0.000337003854 -0.000197894838 0.43071429 0.876169526
12.662604 0.42640396 0.878235199 0.000337480455 -0.000198437669 0.000337480456 -0.000198437669 0.431186913 0.87591443
12.662632 0.426877382 0.877982646 0.000337957709 -0.000198982044 0.000337957709 -0.000198982044 0.431659813 0.875658834
12.66266 0.427351082 0.877729594 0.000338435615 -0.000199527968 0.000338435615 -0.000199527968 0.432132989 0.875402736
12.662688 0.427825061 0.877476044 0.000338914174 -0.000200075445 0.000338914174 -0.000200075445 0.432606443 0.875146136
12.662716 0.428299319 0.877221994 0.000339393385 -0.000200624481 0.000339393386 -0.000200624481 0.433080174 0.874889033
12.662744 0.428773854 0.876967443 0.000339873251 -0.00020117508 0.000339873251 -0.00020117508 0.433554181 0.874631425
12.662772 0.429248669 0.87671239 0.000340353769 -0.000201727248 0.00034035377 -0.000201727247 0.434028466 0.874373312
12.6628 0.429723762 0.876456834 0.000340834942 -0.000202280987 0.000340834943 -0.000202280987 0.434503029 0.874114692
12.662828 0.430199134 0.876200774 0.00034131677 -0.000202836305 0.00034131677 -0.000202836305 0.434977868 0.873855565
12.662856 0.430674785 0.875944209 0.000341799252 -0.000203393204 0.000341799252 -0.000203393204 0.435452986 0.873595929
12.662884 0.431150715 0.875687139 0.000342282388 -0.000203951691 0.000342282389 -0.000203951691 0.43592838 0.873335784
12.662912 0.431626925 0.875429561 0.00034276618 -0.00020451177 0.000342766181 -0.00020451177 0.436404053 0.873075128
12.66294 0.432103413 0.875171476 0.000343250628 -0.000205073446 0.000343250628 -0.000205073446 0.436880003 0.872813961
12.662968 0.43258018 0.874912881 0.000343735731 -0.000205636723 0.000343735731 -0.000205636723 0.43735623 0.872552281
12.662996 0.433057227 0.874653777 0.000344221491 -0.000206201607 0.000344221491 -0.000206201607 0.437832736 0.872290088
12.663024 0.433534554 0.874394162 0.000344707906 -0.000206768102 0.000344707906 -0.000206768102 0.43830952 0.87202738
12.663052 0.43401216 0.874134034 0.000345194978 -0.000207336214 0.000345194979 -0.000207336214 0.438786581 0.871764156
12.66308 0.434490045 0.873873393 0.000345682707 -0.000207905947 0.000345682708 -0.000207905947 0.439263921 0.871500416
12.663108 0.43496821 0.873612239 0.000346171094 -0.000208477307 0.000346171094 -0.000208477307 0.439741539 0.871236158
12.663136 0.435446655 0.873350569 0.000346660137 -0.000209050297 0.000346660137 -0.000209050297 0.440219435 0.870971381
12.663164 0.43592538 0.873088383 0.000347149838 -0.000209624924 0.000347149838 -0.000209624924 0.44069761 0.870706084
12.663192 0.436404384 0.872825679 0.000347640197 -0.000210201192 0.000347640197 -0.000210201192 0.441176063 0.870440266
12.66322 0.436883669 0.872562458 0.000348131214 -0.000210779107 0.000348131214 -0.000210779106 0.441654794 0.870173927
12.663248 0.437363234 0.872298717 0.000348622889 -0.000211358672 0.00034862289 -0.000211358672 0.442133805 0.869907064
12.663276 0.437843079 0.872034455 0.000349115223 -0.000211939894 0.000349115223 -0.000211939894 0.442613093 0.869639677
12.663304 0.438323204 0.871769672 0.000349608216 -0.000212522777 0.000349608216 -0.000212522777 0.443092661 0.869371765
12.663332 0.438803609 0.871504367 0.000350101867 -0.000213107327 0.000350101867 -0.000213107327 0.443572507 0.869103327
12.66336 0.439284295 0.871238538 0.000350596178 -0.000213693548 0.000350596178 -0.000213693548 0.444052632 0.868834362
12.663388 0.439765262 0.870972185 0.000351091148 -0.000214281446 0.000351091148 -0.000214281446 0.444533036 0.868564868
12.663416 0.440246509 0.870705306 0.000351586777 -0.000214871025 0.000351586778 -0.000214871025 0.445013719 0.868294845
12.663444 0.440728036 0.8704379 0.000352083067 -0.000215462292 0.000352083067 -0.000215462292 0.445494681 0.868024292
12.663472 0.441209844 0.870169966 0.000352580016 -0.00021605525 0.000352580016 -0.00021605525 0.445975922 0.867753207
12.6635 0.441691933 0.869901504 0.000353077626 -0.000216649906 0.000353077626 -0.000216649906 0.446457442 0.867481589
12.663528 0.442174303 0.869632511 0.000353575895 -0.000217246264 0.000353575895 -0.000217246264 0.446939242 0.867209438
12.663556 0.442656953 0.869362988 0.000354074825 -0.00021784433 0.000354074826 -0.00021784433 0.447421321 0.866936752
12.663584 0.443139885 0.869092932 0.000354574416 -0.000218444109 0.000354574417 -0.000218444109 0.447903679 0.86666353
12.663612 0.443623098 0.868822343 0.000355074668 -0.000219045606 0.000355074668 -0.000219045606 0.448386317 0.866389772
12.66364 0.444106591 0.86855122 0.000355575581 -0.000219648826 0.000355575581 -0.000219648826 0.448869235 0.866115475
12.663668 0.444590366 0.868279562 0.000356077154 -0.000220253775 0.000356077155 -0.000220253775 0.449352432 0.865840639
12.663696 0.445074423 0.868007367 0.00035657939 -0.000220860457 0.00035657939 -0.000220860457 0.449835908 0.865565263
12.663724 0.44555876 0.867734635 0.000357082286 -0.000221468879 0.000357082286 -0.000221468879 0.450319664 0.865289345
12.663752 0.446043379 0.867461364 0.000357585844 -0.000222079046 0.000357585844 -0.000222079046 0.450803701 0.865012885
12.66378 0.446528279 0.867187554 0.000358090064 -0.000222690962 0.000358090064 -0.000222690962 0.451288016 0.864735882
12.663808 0.447013461 0.866913202 0.000358594945 -0.000223304634 0.000358594945 -0.000223304634 0.451772612 0.864458334
12.663836 0.447498924 0.866638309 0.000359100488 -0.000223920066 0.000359100488 -0.000223920066 0.452257488 0.86418024
12.663864 0.447984669 0.866362873 0.000359606694 -0.000224537265 0.000359606694 -0.000224537265 0.452742644 0.8639016
12.663892 0.448470696 0.866086893 0.000360113561 -0.000225156234 0.000360113561 -0.000225156234 0.45322808 0.863622411
12.66392 0.448957004 0.865810367 0.000360621091 -0.000225776981 0.000360621091 -0.000225776981 0.453713795 0.863342673
12.663948 0.449443595 0.865533295 0.000361129282 -0.00022639951 0.000361129283 -0.00022639951 0.454199792 0.863062386
12.663976 0.449930467 0.865255676 0.000361638137 -0.000227023827 0.000361638137 -0.000227023827 0.454686068 0.862781547
12.664004 0.450417621 0.864977508 0.000362147654 -0.000227649937 0.000362147654 -0.000227649937 0.455172624 0.862500155
12.664032 0.450905057 0.86469879 0.000362657833 -0.000228277846 0.000362657833 -0.000228277846 0.455659461 0.86221821
12.66406 0.451392775 0.864419522 0.000363168675 -0.000228907559 0.000363168675 -0.000228907559 0.456146579 0.86193571
12.664088 0.451880775 0.864139702 0.000363680179 -0.000229539082 0.000363680179 -0.000229539082 0.456633976 0.861652655
12.664116 0.452369057 0.863859329 0.000364192346 -0.00023017242 0.000364192347 -0.00023017242 0.457121655 0.861369042
12.664144 0.452857622 0.863578401 0.000364705176 -0.000230807579 0.000364705177 -0.000230807579 0.457609613 0.861084871
12.664172 0.453346468 0.863296918 0.000365218669 -0.000231444565 0.000365218669 -0.000231444565 0.458097853 0.860800142
12.6642 0.453835597 0.863014879 0.000365732825 -0.000232083383 0.000365732825 -0.000232083383 0.458586373 0.860514851
12.664228 0.454325009 0.862732282 0.000366247643 -0.000232724038 0.000366247643 -0.000232724038 0.459075173 0.860229
12.664256 0.454814702 0.862449127 0.000366763125 -0.000233366538 0.000366763125 -0.000233366537 0.459564255 0.859942585
12.664284 0.455304679 0.862165411 0.000367279269 -0.000234010886 0.000367279269 -0.000234010886 0.460053617 0.859655607
12.664312 0.455794937 0.861881135 0.000367796076 -0.000234657089 0.000367796076 -0.000234657088 0.460543259 0.859368064
12.66434 0.456285479 0.861596297 0.000368313546 -0.000235305152 0.000368313546 -0.000235305152 0.461033183 0.859079954
12.664368 0.456776302 0.861310895 0.000368831679 -0.000235955081 0.000368831679 -0.000235955081 0.461523388 0.858791277
12.664396 0.457267409 0.861024929 0.000369350475 -0.000236606883 0.000369350475 -0.000236606883 0.462013873 0.858502032
12.664424 0.457758798 0.860738397 0.000369869933 -0.000237260562 0.000369869933 -0.000237260562 0.46250464 0.858212218
12.664452 0.45825047 0.860451298 0.000370390055 -0.000237916124 0.000370390055 -0.000237916124 0.462995687 0.857921832
12.66448 0.458742425 0.860163631 0.000370910839 -0.000238573576 0.000370910839 -0.000238573576 0.463487016 0.857630875
12.664508 0.459234662 0.859875396 0.000371432286 -0.000239232922 0.000371432286 -0.000239232922 0.463978625 0.857339344
12.664536 0.459727182 0.85958659 0.000371954395 -0.00023989417 0.000371954396 -0.00023989417 0.464470516 0.857047239
12.664564 0.460219986 0.859297212 0.000372477168 -0.000240557324 0.000372477168 -0.000240557324 0.464962688 0.856754558
12.664592 0.460713072 0.859007262 0.000373000602 -0.00024122239 0.000373000603 -0.00024122239 0.465455141 0.856461301
12.66462 0.461206441 0.858716738 0.0003735247 -0.000241889376 0.0003735247 -0.000241889375 0.465947875 0.856167466
12.664648 0.461700093 0.858425639 0.00037404946 -0.000242558285 0.00037404946 -0.000242558285 0.46644089 0.855873052
12.664676 0.462194028 0.858133964 0.000374574882 -0.000243229125 0.000374574882 -0.000243229125 0.466934187 0.855578058
12.664704 0.462688247 0.857841712 0.000375100966 -0.0002439019 0.000375100966 -0.0002439019 0.467427765 0.855282482
12.664732 0.463182748 0.857548881 0.000375627712 -0.000244576618 0.000375627713 -0.000244576618 0.467921624 0.854986324
12.66476 0.463677533 0.857255471 0.000376155121 -0.000245253284 0.000376155121 -0.000245253284 0.468415765 0.854689582
12.664788 0.4641726 0.856961479 0.000376683191 -0.000245931905 0.000376683192 -0.000245931905 0.468910187 0.854392255
12.664816 0.464667951 0.856666906 0.000377211923 -0.000246612485 0.000377211924 -0.000246612485 0.469404891 0.854094341
12.664844 0.465163585 0.856371749 0.000377741317 -0.000247295031 0.000377741318 -0.000247295031 0.469899876 0.85379584
12.664872 0.465659503 0.856076007 0.000378271373 -0.00024797955 0.000378271373 -0.00024797955 0.470395142 0.853496751
12.6649 0.466155704 0.85577968 0.000378802089 -0.000248666047 0.00037880209 -0.000248666047 0.47089069 0.853197071
12.664928 0.466652188 0.855482766 0.000379333467 -0.000249354529 0.000379333468 -0.000249354528 0.471386519 0.852896801
12.664956 0.467148955 0.855185264 0.000379865506 -0.000250045 0.000379865506 -0.000250045 0.47188263 0.852595938
12.664984 0.467646006 0.854887172 0.000380398206 -0.000250737469 0.000380398206 -0.000250737469 0.472379023 0.852294482
12.665012 0.46814334 0.85458849 0.000380931567 -0.00025143194 0.000380931567 -0.00025143194 0.472875697 0.851992431
12.66504 0.468640958 0.854289216 0.000381465588 -0.00025212842 0.000381465588 -0.00025212842 0.473372652 0.851689784
12.665068 0.469138859 0.853989349 0.000382000269 -0.000252826916 0.000382000269 -0.000252826916 0.473869889 0.851386539
12.665096 0.469637043 0.853688888 0.00038253561 -0.000253527433 0.000382535611 -0.000253527432 0.474367408 0.851082697
12.665124 0.470135511 0.853387832 0.000383071612 -0.000254229977 0.000383071612 -0.000254229977 0.474865208 0.850778254
12.665152 0.470634263 0.853086178 0.000383608272 -0.000254934555 0.000383608273 -0.000254934555 0.47536329 0.850473211
12.66518 0.471133298 0.852783927 0.000384145593 -0.000255641173 0.000384145593 -0.000255641173 0.475861654 0.850167565
12.665208 0.471632616 0.852481076 0.000384683572 -0.000256349838 0.000384683573 -0.000256349838 0.476360299 0.849861316
12.665236 0.472132219 0.852177626 0.000385222211 -0.000257060555 0.000385222211 -0.000257060555 0.476859226 0.849554463
12.665264 0.472632104 0.851873573 0.000385761508 -0.000257773332 0.000385761508 -0.000257773332 0.477358435 0.849247003
12.665292 0.473132273 0.851568918 0.000386301463 -0.000258488174 0.000386301464 -0.000258488174 0.477857925 0.848938936
12.66532 0.473632726 0.851263658 0.000386842077 -0.000259205087 0.000386842077 -0.000259205087 0.478357697 0.848630261
12.665348 0.474133463 0.850957793 0.000387383349 -0.000259924079 0.000387383349 -0.000259924079 0.478857751 0.848320976
12.665376 0.474634483 0.850651322 0.000387925278 -0.000260645155 0.000387925278 -0.000260645155 0.479358086 0.84801108
12.665404 0.475135787 0.850344242 0.000388467864 -0.000261368322 0.000388467864 -0.000261368322 0.479858703 0.847700572
12.665432 0.475637374 0.850036553 0.000389011107 -0.000262093587 0.000389011108 -0.000262093587 0.480359602 0.84738945
12.66546 0.476139245 0.849728254 0.000389555007 -0.000262820956 0.000389555007 -0.000262820956 0.480860783 0.847077714
12.665488 0.4766414 0.849419343 0.000390099563 -0.000263550435 0.000390099564 -0.000263550435 0.481362245 0.846765361
12.665516 0.477143838 0.849109819 0.000390644776 -0.000264282031 0.000390644776 -0.000264282031 0.481863989 0.846452392
12.665544 0.47764656 0.848799681 0.000391190643 -0.000265015751 0.000391190643 -0.000265015751 0.482366014 0.846138803
12.665572 0.478149566 0.848488927 0.000391737166 -0.0002657516 0.000391737166 -0.0002657516 0.482868322 0.845824595
12.6656 0.478652855 0.848177557 0.000392284344 -0.000266489586 0.000392284344 -0.000266489586 0.483370911 0.845509765
12.665628 0.479156428 0.847865568 0.000392832176 -0.000267229716 0.000392832177 -0.000267229716 0.483873781 0.845194313
12.665656 0.479660284 0.84755296 0.000393380663 -0.000267971995 0.000393380663 -0.000267971995 0.484376933 0.844878237
12.665684 0.480164425 0.847239731 0.000393929803 -0.000268716431 0.000393929803 -0.000268716431 0.484880367 0.844561536
12.665712 0.480668848 0.846925881 0.000394479596 -0.00026946303 0.000394479597 -0.00026946303 0.485384083 0.844244209
12.66574 0.481173556 0.846611407 0.000395030043 -0.000270211798 0.000395030043 -0.000270211798 0.48588808 0.843926254
12.665768 0.481678547 0.846296308 0.000395581141 -0.000270962744 0.000395581142 -0.000270962744 0.486392359 0.843607669
12.665796 0.482183822 0.845980584 0.000396132892 -0.000271715872 0.000396132893 -0.000271715872 0.48689692 0.843288455
12.665824 0.48268938 0.845664232 0.000396685295 -0.000272471191 0.000396685295 -0.000272471191 0.487401762 0.842968609
12.665852 0.483195222 0.845347252 0.000397238348 -0.000273228706 0.000397238348 -0.000273228706 0.487906885 0.84264813
12.66588 0.483701348 0.845029642 0.000397792052 -0.000273988425 0.000397792053 -0.000273988425 0.488412291 0.842327016
12.665908 0.484207757 0.844711401 0.000398346407 -0.000274750354 0.000398346407 -0.000274750354 0.488917977 0.842005267
12.665936 0.48471445 0.844392527 0.000398901411 -0.000275514501 0.000398901411 -0.000275514501 0.489423946 0.841682881
12.665964 0.485221426 0.84407302 0.000399457064 -0.000276280871 0.000399457064 -0.000276280871 0.489930195 0.841359857
12.665992 0.485728686 0.843752878 0.000400013366 -0.000277049473 0.000400013366 -0.000277049473 0.490436727 0.841036193
12.66602 0.486236229 0.843432099 0.000400570316 -0.000277820312 0.000400570316 -0.000277820312 0.490943539 0.840711889
12.666048 0.486744056 0.843110682 0.000401127913 -0.000278593396 0.000401127913 -0.000278593396 0.491450633 0.840386942
12.666076 0.487252167 0.842788627 0.000401686158 -0.000279368732 0.000401686158 -0.000279368732 0.491958009 0.840061351
12.666104 0.48776056 0.842465931 0.000402245049 -0.000280146327 0.000402245049 -0.000280146327 0.492465666 0.839735115
12.666132 0.488269238 0.842142593 0.000402804586 -0.000280926187 0.000402804587 -0.000280926187 0.492973604 0.839408233
12.66616 0.488778198 0.841818612 0.000403364769 -0.00028170832 0.000403364769 -0.00028170832 0.493481824 0.839080704
12.666188 0.489287442 0.841493987 0.000403925596 -0.000282492733 0.000403925596 -0.000282492733 0.493990324 0.838752525
12.666216 0.48979697 0.841168715 0.000404487068 -0.000283279432 0.000404487068 -0.000283279432 0.494499107 0.838423696
12.666244 0.490306781 0.840842797 0.000405049183 -0.000284068426 0.000405049183 -0.000284068426 0.49500817 0.838094215
12.666272 0.490816875 0.84051623 0.000405611941 -0.00028485972 0.000405611941 -0.00028485972 0.495517514 0.837764081
12.6663 0.491327252 0.840189013 0.000406175342 -0.000285653322 0.000406175342 -0.000285653322 0.49602714 0.837433292
12.666328 0.491837913 0.839861145 0.000406739384 -0.00028644924 0.000406739384 -0.00028644924 0.496537047 0.837101847
12.666356 0.492348856 0.839532625 0.000407304067 -0.00028724748 0.000407304067 -0.00028724748 0.497047234 0.836769746
12.666384 0.492860083 0.83920345 0.00040786939 -0.00028804805 0.000407869391 -0.00028804805 0.497557703 0.836436985
12.666412 0.493371594 0.83887362 0.000408435354 -0.000288850956 0.000408435354 -0.000288850956 0.498068453 0.836103565
12.66644 0.493883387 0.838543133 0.000409001956 -0.000289656207 0.000409001956 -0.000289656207 0.498579483 0.835769483
12.666468 0.494395463 0.838211988 0.000409569197 -0.000290463809 0.000409569197 -0.000290463809 0.499090795 0.835434738
12.666496 0.494907822 0.837880184 0.000410137075 -0.000291273769 0.000410137075 -0.000291273769 0.499602387 0.835099329
12.666524 0.495420465 0.837547718 0.00041070559 -0.000292086096 0.00041070559 -0.000292086096 0.50011426 0.834763254
12.666552 0.49593339 0.837214591 0.000411274741 -0.000292900796 0.000411274741 -0.000292900796 0.500626414 0.834426513
12.66658 0.496446598 0.836880799 0.000411844528 -0.000293717876 0.000411844528 -0.000293717876 0.501138849 0.834089103
12.666608 0.496960089 0.836546343 0.000412414949 -0.000294537344 0.000412414949 -0.000294537344 0.501651564 0.833751023
12.666636 0.497473863 0.83621122 0.000412986004 -0.000295359208 0.000412986004 -0.000295359208 0.50216456 0.833412272
12.666664 0.497987919 0.835875429 0.000413557692 -0.000296183474 0.000413557692 -0.000296183474 0.502677836 0.833072848
12.666692 0.498502258 0.835538969 0.000414130012 -0.000297010151 0.000414130012 -0.000297010151 0.503191393 0.83273275
12.66672 0.49901688 0.835201838 0.000414702964 -0.000297839245 0.000414702964 -0.000297839245 0.50370523 0.832391977