! This file was generated by CST Filter Designer 3D
! _________________________________________________
! Date:                         03.07.2025 12:15:36

# MHZ S RI R 50
!              Frequency                 Re(S11)                 Im(S11)                 Re(S21)                 Im(S21)                 Re(S12)                 Im(S12)                 Re(S22)                 Im(S22)
                   11450      -0.791774187445441       0.602939810618995    0.000314779799786406    0.000389987578215171    0.000314779799786406    0.000389987578215171      -0.791774187445441       0.602939810618995
                11450.25      -0.790933462322406       0.604007970833164    0.000317869955778543    0.000392672213946531    0.000317869955778543    0.000392672213946531      -0.790933462322406       0.604007970833164
                 11450.5      -0.790087602402526       0.605079552691912    0.000320996267256098     0.00039537824404048    0.000320996267256098     0.00039537824404048      -0.790087602402526       0.605079552691912
                11450.75      -0.789236565424756       0.606154569466161    0.000324159222735958    0.000398105844830269    0.000324159222735958    0.000398105844830269      -0.789236565424756       0.606154569466161
                   11451      -0.788380308688797       0.607233034451395    0.000327359318159795    0.000400855193751706    0.000327359318159795    0.000400855193751706      -0.788380308688797       0.607233034451395
                11451.25      -0.787518789049546       0.608314960966785    0.000330597057017953    0.000403626469334656    0.000330597057017953    0.000403626469334656      -0.787518789049546       0.608314960966785
                 11451.5      -0.786651962911491       0.609400362354262    0.000333872950475465    0.000406419851193769    0.000333872950475465    0.000406419851193769      -0.786651962911491       0.609400362354262
                11451.75      -0.785779786223015       0.610489251977551    0.000337187517500304    0.000409235520018459    0.000337187517500304    0.000409235520018459      -0.785779786223015       0.610489251977551
                   11452      -0.784902214470627       0.611581643221176    0.000340541284993921    0.000412073657562125    0.000340541284993921    0.000412073657562125      -0.784902214470627       0.611581643221176
                11452.25      -0.784019202673075       0.612677549489468    0.000343934787924196    0.000414934446630649    0.000343934787924196    0.000414934446630649      -0.784019202673075       0.612677549489468
                 11452.5      -0.783130705375414       0.613776984205471    0.000347368569460603    0.000417818071069935    0.000347368569460603    0.000417818071069935      -0.783130705375414       0.613776984205471
                11452.75      -0.782236676642942       0.614879960809893    0.000350843181111955    0.000420724715752745    0.000350843181111955    0.000420724715752745      -0.782236676642942       0.614879960809893
                   11453      -0.781337070055093       0.615986492759949    0.000354359182866434    0.000423654566564489    0.000354359182866434    0.000423654566564489      -0.781337070055093       0.615986492759949
                11453.25      -0.780431838699178       0.617096593528234    0.000357917143334303     0.00042660781038827    0.000357917143334303     0.00042660781038827      -0.780431838699178       0.617096593528234
                 11453.5      -0.779520935164106        0.61821027660149     0.00036151763989295    0.000429584635088774     0.00036151763989295    0.000429584635088774      -0.779520935164106        0.61821027660149
                11453.75      -0.778604311533936         0.6193275554794    0.000365161258834727    0.000432585229495353    0.000365161258834727    0.000432585229495353      -0.778604311533936         0.6193275554794
                   11454      -0.777681919381383       0.620448443673301    0.000368848595517304     0.00043560978338398    0.000368848595517304     0.00043560978338398      -0.777681919381383       0.620448443673301
                11454.25      -0.776753709761183       0.621572954704901    0.000372580254516811    0.000438658487458223    0.000372580254516811    0.000438658487458223      -0.776753709761183       0.621572954704901
                 11454.5      -0.775819633203429       0.622701102104866     0.00037635684978348    0.000441731533328922     0.00037635684978348    0.000441731533328922      -0.775819633203429       0.622701102104866
                11454.75      -0.774879639706715       0.623832899411473     0.00038017900480038    0.000444829113492978     0.00038017900480038    0.000444829113492978      -0.774879639706715       0.623832899411473
                   11455      -0.773933678731234       0.624968360169159    0.000384047352744795    0.000447951421310813    0.000384047352744795    0.000447951421310813      -0.773933678731234       0.624968360169159
                11455.25      -0.772981699191754       0.626107497927031    0.000387962536652511    0.000451098650982606    0.000387962536652511    0.000451098650982606      -0.772981699191754       0.626107497927031
                 11455.5      -0.772023649450482        0.62725032623735    0.000391925209585088    0.000454270997523315    0.000391925209585088    0.000454270997523315      -0.772023649450482        0.62725032623735
                11455.75       -0.77105947730985       0.628396858653916    0.000395936034799959    0.000457468656736237    0.000395936034799959    0.000457468656736237       -0.77105947730985       0.628396858653916
                   11456      -0.770089130005126       0.629547108730497     0.00039999568592385    0.000460691825185447     0.00039999568592385    0.000460691825185447      -0.770089130005126       0.629547108730497
                11456.25      -0.769112554196957       0.630701090019135    0.000404104847129092    0.000463940700166639    0.000404104847129092    0.000463940700166639      -0.769112554196957       0.630701090019135
                 11456.5      -0.768129695963812       0.631858816068404    0.000408264213313018    0.000467215479676472    0.000408264213313018    0.000467215479676472      -0.768129695963812       0.631858816068404
                11456.75      -0.767140500794271       0.633020300421639     0.00041247449028072    0.000470516362380513     0.00041247449028072    0.000470516362380513      -0.767140500794271       0.633020300421639
                   11457      -0.766144913579181       0.634185556615148     0.00041673639493112    0.000473843547579647     0.00041673639493112    0.000473843547579647      -0.766144913579181       0.634185556615148
                11457.25      -0.765142878603754       0.635354598176271    0.000421050655446075    0.000477197235174643    0.000421050655446075    0.000477197235174643      -0.765142878603754       0.635354598176271
                 11457.5      -0.764134339539483       0.636527438621468    0.000425418011483102    0.000480577625629235    0.000425418011483102    0.000480577625629235      -0.764134339539483       0.636527438621468
                11457.75      -0.763119239435962       0.637704091454317    0.000429839214371447    0.000483984919931362    0.000429839214371447    0.000483984919931362      -0.763119239435962       0.637704091454317
                   11458      -0.762097520712549        0.63888457016346    0.000434315027311693    0.000487419319552665    0.000434315027311693    0.000487419319552665      -0.762097520712549        0.63888457016346
                11458.25      -0.761069125149938       0.640068888220477    0.000438846225578821     0.00049088102640602    0.000438846225578821     0.00049088102640602      -0.761069125149938       0.640068888220477
                 11458.5      -0.760033993881559        0.64125705907771    0.000443433596728996    0.000494370242801219    0.000443433596728996    0.000494370242801219      -0.760033993881559        0.64125705907771
                11458.75      -0.758992067384866       0.642449096166024    0.000448077940809971    0.000497887171398609    0.000448077940809971    0.000497887171398609      -0.758992067384866       0.642449096166024
                   11459      -0.757943285472488       0.643645012892475    0.000452780070575185    0.000501432015160613    0.000452780070575185    0.000501432015160613      -0.757943285472488       0.643645012892475
                11459.25      -0.756887587283228       0.644844822637943    0.000457540811701732    0.000505004977301159    0.000457540811701732    0.000505004977301159      -0.756887587283228       0.644844822637943
                 11459.5      -0.755824911272913       0.646048538754692    0.000462361003012219    0.000508606261232906    0.000462361003012219    0.000508606261232906      -0.755824911272913       0.646048538754692
                11459.75      -0.754755195205111       0.647256174563847    0.000467241496700487      0.0005122360705121    0.000467241496700487      0.0005122360705121      -0.754755195205111       0.647256174563847
                   11460       -0.75367837614171       0.648467743352783    0.000472183158561295    0.000515894608781046    0.000472183158561295    0.000515894608781046       -0.75367837614171       0.648467743352783
                11460.25      -0.752594390433326       0.649683258372468    0.000477186868224142    0.000519582079708149    0.000477186868224142    0.000519582079708149      -0.752594390433326       0.649683258372468
                 11460.5      -0.751503173709547       0.650902732834731    0.000482253519391267    0.000523298686925455    0.000482253519391267    0.000523298686925455      -0.751503173709547       0.650902732834731
                11460.75      -0.750404660869067       0.652126179909405    0.000487384020079644    0.000527044633963387    0.000487384020079644    0.000527044633963387      -0.750404660869067       0.652126179909405
                   11461      -0.749298786069609       0.653353612721442    0.000492579292867449    0.000530820124182912    0.000492579292867449    0.000530820124182912      -0.749298786069609       0.653353612721442
                11461.25      -0.748185482717712       0.654585044347918    0.000497840275144775     0.00053462536070481    0.000497840275144775     0.00053462536070481      -0.748185482717712       0.654585044347918
                 11461.5      -0.747064683458341       0.655820487814953    0.000503167919368762    0.000538460546336024    0.000503167919368762    0.000538460546336024      -0.747064683458341       0.655820487814953
                11461.75      -0.745936320164346       0.657059956094545    0.000508563193323166    0.000542325883492964    0.000508563193323166    0.000542325883492964      -0.745936320164346       0.657059956094545
                   11462      -0.744800323925735       0.658303462101305    0.000514027080382505    0.000546221574121692    0.000514027080382505    0.000546221574121692      -0.744800323925735       0.658303462101305
                11462.25       -0.74365662503878       0.659551018689105    0.000519560579780784    0.000550147819614849    0.000519560579780784    0.000550147819614849       -0.74365662503878       0.659551018689105
                 11462.5      -0.742505152994903       0.660802638647668    0.000525164706885123    0.000554104820725376    0.000525164706885123    0.000554104820725376      -0.742505152994903       0.660802638647668
                11462.75      -0.741345836469474       0.662058334698963    0.000530840493473706    0.000558092777476454    0.000530840493473706    0.000558092777476454      -0.741345836469474       0.662058334698963
                   11463      -0.740178603310318       0.663318119493605    0.000536588988019024     0.00056211188906819    0.000536588988019024     0.00056211188906819      -0.740178603310318       0.663318119493605
                11463.25      -0.739003380526118       0.664582005607073    0.000542411255975689    0.000566162353780348    0.000542411255975689    0.000566162353780348      -0.739003380526118       0.664582005607073
                 11463.5      -0.737820094274551       0.665850005535885    0.000548308380073536     0.00057024436887146    0.000548308380073536     0.00057024436887146      -0.737820094274551       0.665850005535885
                11463.75      -0.736628669850299       0.667122131693601    0.000554281460615454    0.000574358130473738    0.000554281460615454    0.000574358130473738      -0.736628669850299       0.667122131693601
                   11464      -0.735429031672821       0.668398396406747    0.000560331615780544    0.000578503833484023    0.000560331615780544    0.000578503833484023      -0.735429031672821       0.668398396406747
                11464.25      -0.734221103273921       0.669678811910627    0.000566459981932474    0.000582681671450478    0.000566459981932474    0.000582681671450478      -0.734221103273921       0.669678811910627
                 11464.5      -0.733004807285125       0.670963390344997    0.000572667713933045    0.000586891836454845    0.000572667713933045    0.000586891836454845      -0.733004807285125       0.670963390344997
                11464.75      -0.731780065424821       0.672252143749648    0.000578955985461239    0.000591134518990249    0.000578955985461239    0.000591134518990249      -0.731780065424821       0.672252143749648
                   11465       -0.73054679848524       0.673545084059793    0.000585325989337376    0.000595409907834088    0.000585325989337376    0.000595409907834088       -0.73054679848524       0.673545084059793
                11465.25      -0.729304926319128       0.674842223101435    0.000591778937853282    0.000599718189916414    0.000591778937853282    0.000599718189916414      -0.729304926319128       0.674842223101435
                 11465.5      -0.728054367826294       0.676143572586478    0.000598316063107488    0.000604059550182919    0.000598316063107488    0.000604059550182919      -0.728054367826294       0.676143572586478
                11465.75      -0.726795040939849       0.677449144107806    0.000604938617346497    0.000608434171453014    0.000604938617346497    0.000608434171453014      -0.726795040939849       0.677449144107806
                   11466      -0.725526862612247       0.678758949134168    0.000611647873311615    0.000612842234272424    0.000611647873311615    0.000612842234272424      -0.725526862612247       0.678758949134168
                11466.25       -0.72424974880112         0.6800729990049    0.000618445124591408    0.000617283916760125    0.000618445124591408    0.000617283916760125       -0.72424974880112         0.6800729990049
                 11466.5      -0.722963614454798       0.681391304924564    0.000625331685980389    0.000621759394449772    0.000625331685980389    0.000621759394449772      -0.722963614454798       0.681391304924564
                11466.75      -0.721668373497645       0.682713877957376    0.000632308893843357    0.000626268840125002    0.000632308893843357    0.000626268840125002      -0.721668373497645       0.682713877957376
                   11467      -0.720363938815127       0.684040729021499    0.000639378106485829    0.000630812423648655    0.000639378106485829    0.000630812423648655      -0.720363938815127       0.684040729021499
                11467.25      -0.719050222238605       0.685371868883174      0.0006465407045306    0.000635390311785674      0.0006465407045306    0.000635390311785674      -0.719050222238605       0.685371868883174
                 11467.5      -0.717727134529898       0.686707308150684    0.000653798091300373    0.000640002668019394    0.000653798091300373    0.000640002668019394      -0.717727134529898       0.686707308150684
                11467.75      -0.716394585365553       0.688047057268147    0.000661151693206678    0.000644649652361099    0.000661151693206678    0.000644649652361099      -0.716394585365553       0.688047057268147
                   11468      -0.715052483320865        0.68939112650913    0.000668602960144996    0.000649331421152509    0.000668602960144996    0.000649331421152509      -0.715052483320865        0.68939112650913
                11468.25      -0.713700735853602       0.690739525970088    0.000676153365896304    0.000654048126861062    0.000676153365896304    0.000654048126861062      -0.713700735853602       0.690739525970088
                 11468.5       -0.71233924928747       0.692092265563603     0.00068380440853491    0.000658799917867633     0.00068380440853491    0.000658799917867633       -0.71233924928747       0.692092265563603
                11468.75      -0.710967928795252       0.693449355011471    0.000691557610842984    0.000663586938246643    0.000691557610842984    0.000663586938246643      -0.710967928795252       0.693449355011471
                   11469      -0.709586678381711       0.694810803837533    0.000699414520731282    0.000668409327537944    0.000699414520731282    0.000668409327537944      -0.709586678381711       0.694810803837533
                11469.25       -0.70819540086613       0.696176621360358    0.000707376711666767    0.000673267220510622    0.000707376711666767    0.000673267220510622       -0.70819540086613       0.696176621360358
                 11469.5      -0.706793997864625       0.697546816685664    0.000715445783106509    0.000678160746918025    0.000715445783106509    0.000678160746918025      -0.706793997864625       0.697546816685664
                11469.75      -0.705382369772032       0.698921398698609    0.000723623360938796    0.000683090031244257    0.000723623360938796    0.000683090031244257      -0.705382369772032       0.698921398698609
                   11470      -0.703960415743598       0.700300376055771     0.00073191109793041    0.000688055192441183     0.00073191109793041    0.000688055192441183      -0.703960415743598       0.700300376055771
                11470.25      -0.702528033676284       0.701683757176936    0.000740310674180891    0.000693056343656112    0.000740310674180891    0.000693056343656112      -0.702528033676284       0.701683757176936
                 11470.5      -0.701085120189744       0.703071550236676    0.000748823797583707    0.000698093591949762    0.000748823797583707    0.000698093591949762      -0.701085120189744       0.703071550236676
                11470.75      -0.699631570606963       0.704463763155664    0.000757452204294173    0.000703167038004065    0.000757452204294173    0.000703167038004065      -0.699631570606963       0.704463763155664
                   11471      -0.698167278934565       0.705860403591751    0.000766197659204243     0.00070827677581953    0.000766197659204243     0.00070827677581953      -0.698167278934565       0.705860403591751
                11471.25      -0.696692137842761        0.70726147893078     0.00077506195642418    0.000713422892401802     0.00077506195642418    0.000713422892401802      -0.696692137842761        0.70726147893078
                 11471.5      -0.695206038644971       0.708666996277123    0.000784046919770973    0.000718605467436962    0.000784046919770973    0.000718605467436962      -0.695206038644971       0.708666996277123
                11471.75      -0.693708871277001       0.710076962444012    0.000793154403264149     0.00072382457295558    0.000793154403264149     0.00072382457295558      -0.693708871277001       0.710076962444012
                   11472      -0.692200524275937       0.711491383943523    0.000802386291627999    0.000729080272984531    0.000802386291627999    0.000729080272984531      -0.692200524275937       0.711491383943523
                11472.25      -0.690680884758591       0.712910266976319    0.000811744500801068      0.0007343726231867    0.000811744500801068      0.0007343726231867      -0.690680884758591       0.712910266976319
                 11472.5      -0.689149838399631       0.714333617421054    0.000821230978452212    0.000739701670487743    0.000821230978452212    0.000739701670487743      -0.689149838399631       0.714333617421054
                11472.75      -0.687607269409212       0.715761440823554    0.000830847704504118    0.000745067452690011    0.000830847704504118    0.000745067452690011      -0.687607269409212       0.715761440823554
                   11473      -0.686053060510301       0.717193742385603    0.000840596691663138     0.00075046999807255    0.000840596691663138     0.00075046999807255      -0.686053060510301       0.717193742385603
                11473.25      -0.684487092915533       0.718630526953466    0.000850479985956318    0.000755909324977249    0.000850479985956318    0.000755909324977249      -0.684487092915533       0.718630526953466
                 11473.5      -0.682909246303681       0.720071799006036    0.000860499667274955      0.0007613854413803    0.000860499667274955      0.0007613854413803      -0.682909246303681       0.720071799006036
                11473.75      -0.681319398795637        0.72151756264271     0.00087065784992536    0.000766898344448916     0.00087065784992536    0.000766898344448916      -0.681319398795637        0.72151756264271
                   11474      -0.679717426930042       0.722967821570829    0.000880956683185664    0.000772448020082178    0.000880956683185664    0.000772448020082178      -0.679717426930042       0.722967821570829
                11474.25      -0.678103205638386       0.724422579092833    0.000891398351869837    0.000778034442436185    0.000891398351869837    0.000778034442436185      -0.678103205638386       0.724422579092833
                 11474.5      -0.676476608219666       0.725881838093031    0.000901985076898036    0.000783657573432547    0.000901985076898036    0.000783657573432547      -0.676476608219666       0.725881838093031
                11474.75      -0.674837506314665       0.727345601023913    0.000912719115872879    0.000789317362249502    0.000912719115872879    0.000789317362249502      -0.674837506314665       0.727345601023913
                   11475      -0.673185769879597       0.728813869892205    0.000923602763662992    0.000795013744795875    0.000923602763662992    0.000795013744795875      -0.673185769879597       0.728813869892205
                11475.25      -0.671521267159402       0.730286646244405    0.000934638352991858    0.000800746643166304    0.000934638352991858    0.000800746643166304      -0.671521267159402       0.730286646244405
                 11475.5      -0.669843864660482       0.731763931151946     0.00094582825503307    0.000806515965077815     0.00094582825503307    0.000806515965077815      -0.669843864660482       0.731763931151946
                11475.75      -0.668153427122928       0.733245725195937    0.000957174880011433    0.000812321603286885    0.000957174880011433    0.000812321603286885      -0.668153427122928       0.733245725195937
                   11476      -0.666449817492242       0.734732028451454    0.000968680677809692    0.000818163434986346    0.000968680677809692    0.000818163434986346      -0.666449817492242       0.734732028451454
                11476.25      -0.664732896890541       0.736222840471353    0.000980348138580592    0.000824041321181419    0.000980348138580592    0.000824041321181419      -0.664732896890541       0.736222840471353
                 11476.5      -0.663002524587178       0.737718160269656     0.00099217979336448    0.000829955106044403     0.00099217979336448    0.000829955106044403      -0.663002524587178       0.737718160269656
                11476.75      -0.661258557968865       0.739217986304411     0.00100417821471154    0.000835904616246991     0.00100417821471154    0.000835904616246991      -0.661258557968865       0.739217986304411
                   11477      -0.659500852509173        0.74072231646009     0.00101634601730908    0.000841889660269824     0.00101634601730908    0.000841889660269824      -0.659500852509173        0.74072231646009
                11477.25      -0.657729261737517       0.742231148029436     0.00102868585861296    0.000847910027688184     0.00102868585861296    0.000847910027688184      -0.657729261737517       0.742231148029436
                 11477.5      -0.655943637207481       0.743744477694826     0.00104120043948341    0.000853965488433434     0.00104120043948341    0.000853965488433434      -0.655943637207481       0.743744477694826
                11477.75      -0.654143828464626       0.745262301509021     0.00105389250482416    0.000860055792028918     0.00105389250482416    0.000860055792028918      -0.654143828464626       0.745262301509021
                   11478      -0.652329683013623       0.746784614875411     0.00106676484422526    0.000866180666799977     0.00106676484422526    0.000866180666799977      -0.652329683013623       0.746784614875411
                11478.25       -0.65050104628475       0.748311412527673     0.00107982029260894    0.000872339819057028     0.00107982029260894    0.000872339819057028       -0.65050104628475       0.748311412527673
                 11478.5      -0.648657761599777       0.749842688508814     0.00109306173087773    0.000878532932250734     0.00109306173087773    0.000878532932250734      -0.648657761599777       0.749842688508814
                11478.75      -0.646799670137223       0.751378436149569     0.00110649208656441    0.000884759666098354     0.00110649208656441    0.000884759666098354      -0.646799670137223       0.751378436149569
                   11479      -0.644926610896865       0.752918648046232     0.00112011433448391     0.00089101965568066     0.00112011433448391     0.00089101965568066      -0.644926610896865       0.752918648046232
                11479.25      -0.643038420663636       0.754463316037764     0.00113393149738576    0.000897312510508038     0.00113393149738576    0.000897312510508038      -0.643038420663636       0.754463316037764
                 11479.5       -0.64113493397078       0.756012431182259     0.00114794664660695     0.00090363781355504     0.00114794664660695     0.00090363781355504       -0.64113493397078       0.756012431182259
                11479.75      -0.639215983062298       0.757565983732716     0.00116216290272454    0.000909995120262351     0.00116216290272454    0.000909995120262351      -0.639215983062298       0.757565983732716
                   11480      -0.637281397854693       0.759123963112049      0.0011765834362069    0.000916383957504916      0.0011765834362069    0.000916383957504916      -0.637281397854693       0.759123963112049
                11480.25      -0.635331005897932       0.760686357887403     0.00119121146806344    0.000922803822525448     0.00119121146806344    0.000922803822525448      -0.635331005897932       0.760686357887403
                 11480.5      -0.633364632335666       0.762253155743664     0.00120605027049151    0.000929254181831949     0.00120605027049151    0.000929254181831949      -0.633364632335666       0.762253155743664
                11480.75      -0.631382099864648       0.763824343456215     0.00122110316751998    0.000935734470058298     0.00122110316751998    0.000935734470058298      -0.631382099864648       0.763824343456215
                   11481      -0.629383228693393       0.765399906862829     0.00123637353564801    0.000942244088786461     0.00123637353564801    0.000942244088786461      -0.629383228693393       0.765399906862829
                11481.25      -0.627367836499988       0.766979830834752     0.00125186480447874    0.000948782405329426     0.00125186480447874    0.000948782405329426      -0.627367836499988       0.766979830834752
                 11481.5      -0.625335738389095       0.768564099246895     0.00126758045734617    0.000955348751473337     0.00126758045734617    0.000955348751473337      -0.625335738389095       0.768564099246895
                11481.75      -0.623286746848039       0.770152694947175     0.00128352403193488    0.000961942422177889     0.00128352403193488    0.000961942422177889      -0.623286746848039       0.770152694947175
                   11482      -0.621220671702158       0.771745599724828     0.00129969912088982    0.000968562674233013     0.00129969912088982    0.000968562674233013      -0.621220671702158       0.771745599724828
                11482.25      -0.619137320069085       0.773342794277897     0.00131610937241735    0.000975208724871476     0.00131610937241735    0.000975208724871476      -0.619137320069085       0.773342794277897
                 11482.5      -0.617036496312301       0.774944258179596      0.0013327584908732    0.000981879750334898      0.0013327584908732    0.000981879750334898      -0.617036496312301       0.774944258179596
                11482.75      -0.614918001993616       0.776549969843758      0.0013496502373384    0.000988574884392718      0.0013496502373384    0.000988574884392718      -0.614918001993616       0.776549969843758
                   11483      -0.612781635824778       0.778159906489169     0.00136678843018009    0.000995293216812006     0.00136678843018009    0.000995293216812006      -0.612781635824778       0.778159906489169
                11483.25      -0.610627193618075       0.779774044102839     0.00138417694559606     0.00100203379177693     0.00138417694559606     0.00100203379177693      -0.610627193618075       0.779774044102839
                 11483.5      -0.608454468235954        0.78139235740214     0.00140181971814109     0.00100879560625621     0.00140181971814109     0.00100879560625621      -0.608454468235954        0.78139235740214
                11483.75      -0.606263249539657       0.783014819795743      0.0014197207412329     0.00101557760831684      0.0014197207412329     0.00101557760831684      -0.606263249539657       0.783014819795743