! This file was generated by CST Filter Designer 3D
! _________________________________________________
! Date:                         09.10.2025 13:41:19

# MHZ S RI R 50
!              Frequency                 Re(S11)                 Im(S11)                 Re(S21)                 Im(S21)                 Re(S12)                 Im(S12)                 Re(S22)                 Im(S22)
                   11300      -0.960980395241616       0.272641513325542   -2.11067641924778e-06   -7.02094781795266e-06   -2.11067641924778e-06   -7.02094781795266e-06      -0.960980395241616       0.272641513325542
                 11300.5      -0.960817215912895       0.273199104099338   -2.13256972283463e-06    -7.0780136978943e-06   -2.13256972283463e-06    -7.0780136978943e-06      -0.960817215912895       0.273199104099338
                   11301        -0.9606530165914       0.273758933951647   -2.15473474636531e-06   -7.13565425493005e-06   -2.15473474636531e-06   -7.13565425493005e-06        -0.9606530165914       0.273758933951647
                 11301.5      -0.960487788759595       0.274321016252971   -2.17717541852274e-06   -7.19387638243511e-06   -2.17717541852274e-06   -7.19387638243511e-06      -0.960487788759595       0.274321016252971
                   11302      -0.960321523810773       0.274885364479116   -2.19989573285468e-06   -7.25268706953297e-06   -2.19989573285468e-06   -7.25268706953297e-06      -0.960321523810773       0.274885364479116
                 11302.5       -0.96015421304792       0.275451992212209   -2.22289974897784e-06   -7.31209340260273e-06   -2.22289974897784e-06   -7.31209340260273e-06       -0.96015421304792       0.275451992212209
                   11303      -0.959985847682587       0.276020913141729   -2.24619159380669e-06   -7.37210256681213e-06   -2.24619159380669e-06   -7.37210256681213e-06      -0.959985847682587       0.276020913141729
                 11303.5      -0.959816418833729       0.276592141065564    -2.2697754628081e-06   -7.43272184767901e-06    -2.2697754628081e-06   -7.43272184767901e-06      -0.959816418833729       0.276592141065564
                   11304      -0.959645917526524       0.277165689891053   -2.29365562128142e-06   -7.49395863265862e-06   -2.29365562128142e-06   -7.49395863265862e-06      -0.959645917526524       0.277165689891053
                 11304.5      -0.959474334691187       0.277741573636068   -2.31783640566542e-06   -7.55582041275991e-06   -2.31783640566542e-06   -7.55582041275991e-06      -0.959474334691187       0.277741573636068
                   11305      -0.959301661161758       0.278319806430092   -2.34232222487248e-06   -7.61831478419037e-06   -2.34232222487248e-06   -7.61831478419037e-06      -0.959301661161758       0.278319806430092
                 11305.5      -0.959127887674877       0.278900402515313   -2.36711756165024e-06   -7.68144945002926e-06   -2.36711756165024e-06   -7.68144945002926e-06      -0.959127887674877       0.278900402515313
                   11306      -0.958953004868531       0.279483376247731   -2.39222697397181e-06   -7.74523222193083e-06   -2.39222697397181e-06   -7.74523222193083e-06      -0.958953004868531       0.279483376247731
                 11306.5      -0.958777003280797       0.280068742098277    -2.4176550964552e-06   -7.80967102185814e-06    -2.4176550964552e-06   -7.80967102185814e-06      -0.958777003280797       0.280068742098277
                   11307      -0.958599873348551       0.280656514653954   -2.44340664181235e-06   -7.87477388384733e-06   -2.44340664181235e-06   -7.87477388384733e-06      -0.958599873348551       0.280656514653954
                 11307.5       -0.95842160540617       0.281246708618968   -2.46948640232849e-06   -7.94054895580298e-06   -2.46948640232849e-06   -7.94054895580298e-06       -0.95842160540617       0.281246708618968
                   11308      -0.958242189684207       0.281839338815904   -2.49589925137282e-06    -8.0070045013262e-06   -2.49589925137282e-06    -8.0070045013262e-06      -0.958242189684207       0.281839338815904
                 11308.5      -0.958061616308046       0.282434420186886   -2.52265014494089e-06   -8.07414890157478e-06   -2.52265014494089e-06   -8.07414890157478e-06      -0.958061616308046       0.282434420186886
                   11309      -0.957879875296542        0.28303196779477   -2.54974412322965e-06    -8.1419906571569e-06   -2.54974412322965e-06    -8.1419906571569e-06      -0.957879875296542        0.28303196779477
                 11309.5      -0.957696956560637       0.283631996824341   -2.57718631224569e-06   -8.21053839005856e-06   -2.57718631224569e-06   -8.21053839005856e-06      -0.957696956560637       0.283631996824341
                   11310      -0.957512849901951       0.284234522583534   -2.60498192544796e-06   -8.27980084560635e-06   -2.60498192544796e-06   -8.27980084560635e-06      -0.957512849901951       0.284234522583534
                 11310.5      -0.957327545011361       0.284839560504653   -2.63313626542478e-06   -8.34978689446403e-06   -2.63313626542478e-06   -8.34978689446403e-06      -0.957327545011361       0.284839560504653
                   11311      -0.957141031467548       0.285447126145618   -2.66165472560709e-06   -8.42050553466632e-06   -2.66165472560709e-06   -8.42050553466632e-06      -0.957141031467548       0.285447126145618
                 11311.5      -0.956953298735529       0.286057235191228   -2.69054279201842e-06   -8.49196589368989e-06   -2.69054279201842e-06   -8.49196589368989e-06      -0.956953298735529       0.286057235191228
                   11312      -0.956764336165164       0.286669903454424   -2.71980604506134e-06   -8.56417723055933e-06   -2.71980604506134e-06   -8.56417723055933e-06      -0.956764336165164       0.286669903454424
                 11312.5      -0.956574132989639       0.287285146877583   -2.74945016134336e-06   -8.63714893799418e-06   -2.74945016134336e-06   -8.63714893799418e-06      -0.956574132989639       0.287285146877583
                   11313       -0.95638267832393       0.287902981533817   -2.77948091554116e-06   -8.71089054459265e-06   -2.77948091554116e-06   -8.71089054459265e-06       -0.95638267832393       0.287902981533817
                 11313.5      -0.956189961163235       0.288523423628291   -2.80990418230548e-06   -8.78541171705645e-06   -2.80990418230548e-06   -8.78541171705645e-06      -0.956189961163235       0.288523423628291
                   11314      -0.955995970381386       0.289146489499563   -2.84072593820695e-06   -8.86072226245572e-06   -2.84072593820695e-06   -8.86072226245572e-06      -0.955995970381386       0.289146489499563
                 11314.5      -0.955800694729247       0.289772195620921    -2.8719522637236e-06   -8.93683213053418e-06    -2.8719522637236e-06   -8.93683213053418e-06      -0.955800694729247       0.289772195620921
                   11315      -0.955604122833062       0.290400558601757   -2.90358934527198e-06   -9.01375141605811e-06   -2.90358934527198e-06   -9.01375141605811e-06      -0.955604122833062       0.290400558601757
                 11315.5      -0.955406243192809       0.291031595188946   -2.93564347728189e-06   -9.09149036120672e-06   -2.93564347728189e-06   -9.09149036120672e-06      -0.955406243192809       0.291031595188946
                   11316      -0.955207044180498       0.291665322268245   -2.96812106431676e-06   -9.17005935800798e-06   -2.96812106431676e-06   -9.17005935800798e-06      -0.955207044180498       0.291665322268245
                 11316.5       -0.95500651403846       0.292301756865706   -3.00102862323955e-06   -9.24946895081721e-06   -3.00102862323955e-06   -9.24946895081721e-06       -0.95500651403846       0.292301756865706
                   11317       -0.95480464087761       0.292940916149107   -3.03437278542646e-06    -9.3297298388426e-06   -3.03437278542646e-06    -9.3297298388426e-06       -0.95480464087761       0.292940916149107
                 11317.5      -0.954601412675671         0.2935828174294   -3.06816029902886e-06   -9.41085287871672e-06   -3.06816029902886e-06   -9.41085287871672e-06      -0.954601412675671         0.2935828174294
                   11318      -0.954396817275382       0.294227478162181   -3.10239803128505e-06   -9.49284908711571e-06   -3.10239803128505e-06   -9.49284908711571e-06      -0.954396817275382       0.294227478162181
                 11318.5      -0.954190842382669       0.294874915949166   -3.13709297088236e-06   -9.57572964342617e-06   -3.13709297088236e-06   -9.57572964342617e-06      -0.954190842382669       0.294874915949166
                   11319      -0.953983475564791       0.295525148539699   -3.17225223037201e-06   -9.65950589246284e-06   -3.17225223037201e-06   -9.65950589246284e-06      -0.953983475564791       0.295525148539699
                 11319.5       -0.95377470424846       0.296178193832269   -3.20788304863643e-06   -9.74418934723472e-06   -3.20788304863643e-06   -9.74418934723472e-06       -0.95377470424846       0.296178193832269
                   11320      -0.953564515717921       0.296834069876043   -3.24399279341178e-06   -9.82979169176408e-06   -3.24399279341178e-06   -9.82979169176408e-06      -0.953564515717921       0.296834069876043
                 11320.5      -0.953352897113013       0.297492794872429     -3.280588963866e-06   -9.91632478395703e-06     -3.280588963866e-06   -9.91632478395703e-06      -0.953352897113013       0.297492794872429
                   11321      -0.953139835427189       0.298154387176645   -3.31767919323452e-06   -1.00038006585283e-05   -3.31767919323452e-06   -1.00038006585283e-05      -0.953139835427189       0.298154387176645
                 11321.5      -0.952925317505513       0.298818865299319   -3.35527125151421e-06   -1.00922315299798e-05   -3.35527125151421e-06   -1.00922315299798e-05      -0.952925317505513       0.298818865299319
                   11322      -0.952709330042618        0.29948624790809   -3.39337304821749e-06   -1.01816297956351e-05   -3.39337304821749e-06   -1.01816297956351e-05      -0.952709330042618        0.29948624790809
                 11322.5      -0.952491859580635       0.300156553829256   -3.43199263518847e-06    -1.0272008038731e-05   -3.43199263518847e-06    -1.0272008038731e-05      -0.952491859580635       0.300156553829256
                   11323      -0.952272892507085       0.300829802049417   -3.47113820948179e-06   -1.03633790315675e-05   -3.47113820948179e-06   -1.03633790315675e-05      -0.952272892507085       0.300829802049417
                 11323.5      -0.952052415052745       0.301506011717146   -3.51081811630573e-06   -1.04557557387148e-05   -3.51081811630573e-06   -1.04557557387148e-05      -0.952052415052745       0.301506011717146
                   11324      -0.951830413289465        0.30218520214469   -3.55104085203261e-06   -1.05491513202838e-05   -3.55104085203261e-06   -1.05491513202838e-05      -0.951830413289465        0.30218520214469
                 11324.5      -0.951606873127968       0.302867392809673   -3.59181506727588e-06   -1.06435791352554e-05   -3.59181506727588e-06   -1.06435791352554e-05      -0.951606873127968       0.302867392809673
                   11325      -0.951381780315597       0.303552603356842   -3.63314957003776e-06   -1.07390527448747e-05   -3.63314957003776e-06   -1.07390527448747e-05      -0.951381780315597       0.303552603356842
                 11325.5      -0.951155120434036       0.304240853599809   -3.67505332892721e-06   -1.08355859161075e-05   -3.67505332892721e-06   -1.08355859161075e-05      -0.951155120434036       0.304240853599809
                   11326      -0.950926878896988       0.304932163522843   -3.71753547645216e-06   -1.09331926251647e-05   -3.71753547645216e-06   -1.09331926251647e-05      -0.950926878896988       0.304932163522843
                 11326.5      -0.950697040947822       0.305626553282653   -3.76060531238492e-06   -1.10318870610904e-05   -3.76060531238492e-06   -1.10318870610904e-05      -0.950697040947822       0.305626553282653
                   11327       -0.95046559165717       0.306324043210224   -3.80427230720645e-06   -1.11316836294216e-05   -3.80427230720645e-06   -1.11316836294216e-05       -0.95046559165717       0.306324043210224
                 11327.5      -0.950232515920495        0.30702465381265   -3.84854610562722e-06   -1.12325969559147e-05   -3.84854610562722e-06   -1.12325969559147e-05      -0.950232515920495        0.30702465381265
                   11328      -0.949997798455618       0.307728405775003   -3.89343653019015e-06   -1.13346418903445e-05   -3.89343653019015e-06   -1.13346418903445e-05      -0.949997798455618       0.307728405775003
                 11328.5      -0.949761423800191       0.308435319962221    -3.9389535849556e-06   -1.14378335103756e-05    -3.9389535849556e-06   -1.14378335103756e-05      -0.949761423800191       0.308435319962221
                   11329      -0.949523376309148       0.309145417421024   -3.98510745927139e-06   -1.15421871255079e-05   -3.98510745927139e-06   -1.15421871255079e-05      -0.949523376309148       0.309145417421024
                 11329.5      -0.949283640152098       0.309858719381842     -4.031908531629e-06   -1.16477182810965e-05     -4.031908531629e-06   -1.16477182810965e-05      -0.949283640152098       0.309858719381842
                   11330      -0.949042199310681       0.310575247260786   -4.07936737361044e-06   -1.17544427624513e-05   -4.07936737361044e-06   -1.17544427624513e-05      -0.949042199310681       0.310575247260786
                 11330.5      -0.948799037575878       0.311295022661624   -4.12749475392461e-06   -1.18623765990127e-05   -4.12749475392461e-06   -1.18623765990127e-05      -0.948799037575878       0.311295022661624
                   11331      -0.948554138545282       0.312018067377785   -4.17630164253821e-06   -1.19715360686085e-05   -4.17630164253821e-06   -1.19715360686085e-05      -0.948554138545282       0.312018067377785
                 11331.5      -0.948307485620308       0.312744403394408   -4.22579921490331e-06   -1.20819377017943e-05   -4.22579921490331e-06   -1.20819377017943e-05      -0.948307485620308       0.312744403394408
                   11332      -0.948059062003377       0.313474052890387   -4.27599885628234e-06   -1.21935982862761e-05   -4.27599885628234e-06   -1.21935982862761e-05      -0.948059062003377       0.313474052890387
                 11332.5       -0.94780885069503       0.314207038240465   -4.32691216617497e-06   -1.23065348714194e-05   -4.32691216617497e-06   -1.23065348714194e-05       -0.94780885069503       0.314207038240465
                   11333      -0.947556834491014       0.314943382017334   -4.37855096284752e-06   -1.24207647728437e-05   -4.37855096284752e-06   -1.24207647728437e-05      -0.947556834491014       0.314943382017334
                 11333.5      -0.947302995979305       0.315683106993782   -4.43092728797031e-06   -1.25363055771101e-05   -4.43092728797031e-06   -1.25363055771101e-05      -0.947302995979305       0.315683106993782
                   11334      -0.947047317537085       0.316426236144851   -4.48405341136257e-06   -1.26531751464957e-05   -4.48405341136257e-06   -1.26531751464957e-05      -0.947047317537085       0.316426236144851
                 11334.5      -0.946789781327664       0.317172792650035   -4.53794183585031e-06   -1.27713916238649e-05   -4.53794183585031e-06   -1.27713916238649e-05      -0.946789781327664       0.317172792650035
                   11335      -0.946530369297357       0.317922799895482   -4.59260530223753e-06    -1.2890973437631e-05   -4.59260530223753e-06    -1.2890973437631e-05      -0.946530369297357       0.317922799895482
                 11335.5        -0.9462690631723        0.31867628147626   -4.64805679439691e-06   -1.30119393068201e-05   -4.64805679439691e-06   -1.30119393068201e-05        -0.9462690631723        0.31867628147626
                   11336      -0.946005844455214       0.319433261198619   -4.70430954448009e-06   -1.31343082462305e-05   -4.70430954448009e-06   -1.31343082462305e-05      -0.946005844455214       0.319433261198619
                 11336.5      -0.945740694422115       0.320193763082294   -4.76137703825185e-06   -1.32580995716931e-05   -4.76137703825185e-06   -1.32580995716931e-05      -0.945740694422115       0.320193763082294
                   11337      -0.945473594118962       0.320957811362844   -4.81927302055239e-06   -1.33833329054376e-05   -4.81927302055239e-06   -1.33833329054376e-05      -0.945473594118962       0.320957811362844
                 11337.5      -0.945204524358254       0.321725430494005   -4.87801150088928e-06   -1.35100281815623e-05   -4.87801150088928e-06   -1.35100281815623e-05      -0.945204524358254       0.321725430494005
                   11338      -0.944933465715564       0.322496645150087   -4.93760675916335e-06    -1.3638205651611e-05   -4.93760675916335e-06    -1.3638205651611e-05      -0.944933465715564       0.322496645150087
                 11338.5      -0.944660398526013       0.323271480228393   -4.99807335153262e-06   -1.37678858902619e-05   -4.99807335153262e-06   -1.37678858902619e-05      -0.944660398526013       0.323271480228393
                   11339      -0.944385302880679       0.324049960851672   -5.05942611641681e-06   -1.38990898011278e-05   -5.05942611641681e-06   -1.38990898011278e-05      -0.944385302880679       0.324049960851672
                 11339.5      -0.944108158622954       0.324832112370598   -5.12168018064637e-06   -1.40318386226697e-05   -5.12168018064637e-06   -1.40318386226697e-05      -0.944108158622954       0.324832112370598
                   11340      -0.943828945344822       0.325617960366291    -5.1848509657613e-06   -1.41661539342307e-05    -5.1848509657613e-06   -1.41661539342307e-05      -0.943828945344822       0.325617960366291
                 11340.5      -0.943547642383087       0.326407530652858   -5.24895419446082e-06   -1.43020576621862e-05   -5.24895419446082e-06   -1.43020576621862e-05      -0.943547642383087       0.326407530652858
                   11341      -0.943264228815522       0.327200849279973   -5.31400589721133e-06    -1.4439572086219e-05   -5.31400589721133e-06    -1.4439572086219e-05      -0.943264228815522       0.327200849279973
                 11341.5      -0.942978683456958       0.327997942535494   -5.38002241901435e-06   -1.45787198457183e-05   -5.38002241901435e-06   -1.45787198457183e-05      -0.942978683456958       0.327997942535494
                   11342        -0.9426909848553       0.328798836948098   -5.44702042633892e-06   -1.47195239463047e-05   -5.44702042633892e-06   -1.47195239463047e-05        -0.9426909848553       0.328798836948098
                 11342.5      -0.942401111287472       0.329603559289968   -5.51501691422521e-06   -1.48620077664888e-05   -5.51501691422521e-06   -1.48620077664888e-05      -0.942401111287472       0.329603559289968
                   11343      -0.942109040755295       0.330412136579502   -5.58402921356044e-06   -1.50061950644598e-05   -5.58402921356044e-06   -1.50061950644598e-05      -0.942109040755295       0.330412136579502
                 11343.5       -0.94181475098128       0.331224596084063   -5.65407499853497e-06   -1.51521099850124e-05   -5.65407499853497e-06   -1.51521099850124e-05       -0.94181475098128       0.331224596084063
                   11344      -0.941518219404364       0.332040965322758    -5.7251722942806e-06   -1.52997770666102e-05    -5.7251722942806e-06   -1.52997770666102e-05      -0.941518219404364       0.332040965322758
                 11344.5      -0.941219423175547        0.33286127206926   -5.79733948469858e-06   -1.54492212485933e-05   -5.79733948469858e-06   -1.54492212485933e-05      -0.941219423175547        0.33286127206926
                   11345      -0.940918339153473       0.333685544354655   -5.87059532048016e-06   -1.56004678785285e-05   -5.87059532048016e-06   -1.56004678785285e-05      -0.940918339153473       0.333685544354655
                 11345.5      -0.940614943899912       0.334513810470349   -5.94495892732781e-06   -1.57535427197118e-05   -5.94495892732781e-06   -1.57535427197118e-05      -0.940614943899912       0.334513810470349
                   11346      -0.940309213675174        0.33534609897098   -6.02044981437832e-06   -1.59084719588164e-05   -6.02044981437832e-06   -1.59084719588164e-05      -0.940309213675174        0.33534609897098
                 11346.5      -0.940001124433433       0.336182438677389   -6.09708788283725e-06   -1.60652822136988e-05   -6.09708788283725e-06   -1.60652822136988e-05      -0.940001124433433       0.336182438677389
                   11347      -0.939690651817969       0.337022858679624   -6.17489343482905e-06   -1.62240005413629e-05   -6.17489343482905e-06   -1.62240005413629e-05      -0.939690651817969       0.337022858679624
                 11347.5      -0.939377771156319       0.337867388339989    -6.2538871824684e-06   -1.63846544460851e-05    -6.2538871824684e-06   -1.63846544460851e-05      -0.939377771156319       0.337867388339989
                   11348      -0.939062457455349       0.338716057296116   -6.33409025715855e-06   -1.65472718877022e-05   -6.33409025715855e-06   -1.65472718877022e-05      -0.939062457455349       0.338716057296116
                 11348.5      -0.938744685396218       0.339568895464093   -6.41552421912482e-06   -1.67118812900715e-05   -6.41552421912482e-06   -1.67118812900715e-05      -0.938744685396218       0.339568895464093
                   11349      -0.938424429329276       0.340425933041622   -6.49821106718682e-06   -1.68785115496989e-05   -6.49821106718682e-06   -1.68785115496989e-05      -0.938424429329276       0.340425933041622
                 11349.5      -0.938101663268839       0.341287200511227   -6.58217324877933e-06   -1.70471920445464e-05   -6.58217324877933e-06   -1.70471920445464e-05      -0.938101663268839       0.341287200511227
                   11350       -0.93777636088789       0.342152728643493    -6.6674336702252e-06   -1.72179526430163e-05    -6.6674336702252e-06   -1.72179526430163e-05       -0.93777636088789       0.342152728643493
                 11350.5      -0.937448495512666       0.343022548500357   -6.75401570727112e-06   -1.73908237131222e-05   -6.75401570727112e-06   -1.73908237131222e-05      -0.937448495512666       0.343022548500357
                   11351      -0.937118040117161        0.34389669143843   -6.84194321588915e-06   -1.75658361318436e-05   -6.84194321588915e-06   -1.75658361318436e-05      -0.937118040117161        0.34389669143843
                 11351.5       -0.93678496731751       0.344775189112376   -6.93124054335593e-06   -1.77430212946756e-05   -6.93124054335593e-06   -1.77430212946756e-05       -0.93678496731751       0.344775189112376
                   11352      -0.936449249366276       0.345658073478326   -7.02193253961438e-06   -1.79224111253737e-05   -7.02193253961438e-06   -1.79224111253737e-05      -0.936449249366276       0.345658073478326
                 11352.5      -0.936110858146633       0.346545376797338   -7.11404456892669e-06   -1.81040380858978e-05   -7.11404456892669e-06   -1.81040380858978e-05      -0.936110858146633       0.346545376797338
                   11353      -0.935769765166437       0.347437131638893   -7.20760252182556e-06   -1.82879351865594e-05   -7.20760252182556e-06   -1.82879351865594e-05      -0.935769765166437       0.347437131638893
                 11353.5      -0.935425941552178       0.348333370884467   -7.30263282737661e-06   -1.84741359963834e-05   -7.30263282737661e-06   -1.84741359963834e-05      -0.935425941552178       0.348333370884467
                   11354      -0.935079358042834       0.349234127731103   -7.39916246575335e-06   -1.86626746536764e-05   -7.39916246575335e-06   -1.86626746536764e-05      -0.935079358042834       0.349234127731103
                 11354.5      -0.934729984983593        0.35013943569507   -7.49721898114048e-06   -1.88535858768179e-05   -7.49721898114048e-06   -1.88535858768179e-05      -0.934729984983593        0.35013943569507
                   11355      -0.934377792319463       0.351049328615552   -7.59683049497135e-06   -1.90469049752738e-05   -7.59683049497135e-06   -1.90469049752738e-05      -0.934377792319463       0.351049328615552
                 11355.5      -0.934022749588764       0.351963840658381   -7.69802571950843e-06   -1.92426678608355e-05   -7.69802571950843e-06   -1.92426678608355e-05      -0.934022749588764       0.351963840658381
                   11356      -0.933664825916487       0.352883006319828   -7.80083397178006e-06   -1.94409110590956e-05   -7.80083397178006e-06   -1.94409110590956e-05      -0.933664825916487       0.352883006319828
                 11356.5      -0.933303990007531       0.353806860430445   -7.90528518787989e-06   -1.96416717211591e-05   -7.90528518787989e-06   -1.96416717211591e-05      -0.933303990007531       0.353806860430445
                   11357      -0.932940210139813       0.354735438158947   -8.01140993764174e-06   -1.98449876355989e-05   -8.01140993764174e-06   -1.98449876355989e-05      -0.932940210139813       0.354735438158947
                 11357.5       -0.93257345415724       0.355668775016143   -8.11923943969857e-06   -2.00508972406577e-05   -8.11923943969857e-06   -2.00508972406577e-05       -0.93257345415724       0.355668775016143
                   11358      -0.932203689462546       0.356606906858946   -8.22880557694095e-06   -2.02594396367098e-05   -8.22880557694095e-06   -2.02594396367098e-05      -0.932203689462546       0.356606906858946
                 11358.5      -0.931830883009996       0.357549869894384   -8.34014091237943e-06   -2.04706545989737e-05   -8.34014091237943e-06   -2.04706545989737e-05      -0.931830883009996       0.357549869894384
                   11359      -0.931455001297943       0.358497700683726   -8.45327870543101e-06   -2.06845825904999e-05   -8.45327870543101e-06   -2.06845825904999e-05      -0.931455001297943       0.358497700683726
                 11359.5      -0.931076010361234       0.359450436146609   -8.56825292863415e-06   -2.09012647754222e-05   -8.56825292863415e-06   -2.09012647754222e-05      -0.931076010361234       0.359450436146609
                   11360      -0.930693875763492       0.360408113565242   -8.68509828481003e-06   -2.11207430324899e-05   -8.68509828481003e-06   -2.11207430324899e-05      -0.930693875763492       0.360408113565242
                 11360.5      -0.930308562589216       0.361370770588669   -8.80385022468043e-06   -2.13430599688816e-05   -8.80385022468043e-06   -2.13430599688816e-05      -0.930308562589216       0.361370770588669
                   11361      -0.929920035435746       0.362338445237074    -8.9245449649576e-06   -2.15682589343108e-05    -8.9245449649576e-06   -2.15682589343108e-05      -0.929920035435746       0.362338445237074
                 11361.5      -0.929528258405061       0.363311175906161   -9.04721950691831e-06    -2.1796384035426e-05   -9.04721950691831e-06    -2.1796384035426e-05      -0.929528258405061       0.363311175906161
                   11362      -0.929133195095427       0.364289001371561   -9.17191165547466e-06   -2.20274801505101e-05   -9.17191165547466e-06   -2.20274801505101e-05      -0.929133195095427       0.364289001371561
                 11362.5       -0.92873480859286        0.36527196079333   -9.29866003876238e-06   -2.22615929444958e-05   -9.29866003876238e-06   -2.22615929444958e-05       -0.92873480859286        0.36527196079333
                   11363      -0.928333061462436       0.366260093720494   -9.42750412825505e-06   -2.24987688842913e-05   -9.42750412825505e-06   -2.24987688842913e-05      -0.928333061462436       0.366260093720494
                 11363.5      -0.927927915739426       0.367253440095628    -9.5584842594218e-06   -2.27390552544276e-05    -9.5584842594218e-06   -2.27390552544276e-05      -0.927927915739426       0.367253440095628
                   11364      -0.927519332920244       0.368252040259543   -9.69164165294892e-06   -2.29825001730426e-05   -9.69164165294892e-06   -2.29825001730426e-05      -0.927519332920244       0.368252040259543
                 11364.5      -0.927107273953224       0.369255934955991   -9.82701843653522e-06   -2.32291526081947e-05   -9.82701843653522e-06   -2.32291526081947e-05      -0.927107273953224       0.369255934955991
                   11365      -0.926691699229209       0.370265165336459   -9.96465766728353e-06    -2.3479062394526e-05   -9.96465766728353e-06    -2.3479062394526e-05      -0.926691699229209       0.370265165336459
                 11365.5      -0.926272568571947       0.371279772965003   -1.01046033547026e-05    -2.3732280250273e-05   -1.01046033547026e-05    -2.3732280250273e-05      -0.926272568571947       0.371279772965003
                   11366      -0.925849841228299       0.372299799823169   -1.02469004843417e-05   -2.39888577946425e-05   -1.02469004843417e-05   -2.39888577946425e-05      -0.925849841228299       0.372299799823169
                 11366.5      -0.925423475858241       0.373325288314961   -1.03915950420724e-05   -2.42488475655504e-05   -1.03915950420724e-05   -2.42488475655504e-05      -0.925423475858241       0.373325288314961
                   11367       -0.92499343052467       0.374356281271876   -1.05387340390392e-05   -2.45123030377377e-05   -1.05387340390392e-05   -2.45123030377377e-05       -0.92499343052467       0.374356281271876
                 11367.5      -0.924559662682997       0.375392821958013    -1.0688365537301e-05   -2.47792786412716e-05    -1.0688365537301e-05   -2.47792786412716e-05      -0.924559662682997       0.375392821958013