! TOUCHSTONE file generated by CST MICROWAVE STUDIO
! Date and time: Thu Jun 15 18:31:35 2023
! Project name: EAMU4-KuIMUXT3-BPFC1 Rev.0.2-0.1#ÝÄÌ. Ñáîðêà.cst
! Parameters = {cavity_h=16; cavity_l0=10; cavity_l1=15.519; cavity_l2=17.2108; cavity_l3=17.4719; cavity_l4=17.6397; cavity_l5=17.5072; cavity_l6=17.9889; cavity_r=2.5; cavity_screw_l=0.5; cavity_screw_r=1.5; cavity_w=8; iris_h00=0; iris_h01=8.892; iris_h112=0; iris_h12=5.647; iris_h211=3.723; iris_h23=5.232; iris_h310=3.938; iris_h34=5.111; iris_h45=4.962; iris_h49=4.596; iris_h56=4.826; iris_h58=4.488; iris_h67=6.68; iris_rx=0.1; iris_screw_l=0.4; iris_screw_r=1.5; iris_shift00=0; iris_shift112=0; iris_shift211=3.5; iris_shift310=0; iris_shift49=0; iris_shift58=3.5; iris_shift67=3.5; iris_tx=4.5; iris_tz=4.5; iris_w00=0; iris_w112=0; iris_w211=4; iris_w310=3.938; iris_w49=4.596; iris_w58=4; iris_w67=4; mesh_cavity=6; mesh_iris=8; mesh_screw=8; order=12; reset_all=0; sigma=4.8e+07}
! Header version: 2018
! Port assignment regex: !\s*Touchstone port\s*([0-9]+)\s*=\s*(CST MWS port|CST DS port)\s*([0-9]+|Zmin|Zmax)\s*\(\"(.*)\"\)(\s*mode\s*([0-9]+))?.*
! Touchstone port assignment:
! Touchstone port 1 = CST MWS port 1 ("")
! Touchstone port 2 = CST MWS port 2 ("")
! S-Parameters are not renormalized. Unphysical impedance of 50 will be written to the file.
# GHz S RI R 50
12.5                -0.151173709     0.977889044   5.59800783e-05  6.02165189e-06   5.59800785e-05  6.02165189e-06     -0.153740717      0.97749122
12.50007            -0.150623062     0.977964277   5.61352493e-05  6.00483803e-06   5.61352494e-05  6.00483803e-06     -0.153189951     0.977567928
12.50014             -0.15007178     0.978039271   5.62909331e-05  5.98786099e-06   5.62909333e-05  5.98786099e-06     -0.152638549     0.977644398
12.50021            -0.149519864     0.978114026   5.64471319e-05  5.97071971e-06   5.64471321e-05  5.97071971e-06     -0.152086509      0.97772063
12.50028            -0.148967312      0.97818854   5.66038475e-05  5.95341309e-06   5.66038477e-05  5.95341309e-06      -0.15153383     0.977796622
12.50035            -0.148414122     0.978262812   5.67610819e-05  5.93594007e-06   5.67610821e-05  5.93594006e-06     -0.150980511     0.977872375
12.50042            -0.147860294     0.978336841   5.69188372e-05  5.91829954e-06   5.69188374e-05  5.91829954e-06     -0.150426551     0.977947886
12.50049            -0.147305826     0.978410627   5.70771152e-05  5.90049042e-06   5.70771154e-05  5.90049041e-06     -0.149871949     0.978023156
12.50056            -0.146750717     0.978484169   5.72359181e-05  5.88251159e-06   5.72359182e-05  5.88251159e-06     -0.149316702     0.978098182
12.50063            -0.146194966     0.978557465   5.73952477e-05  5.86436195e-06   5.73952479e-05  5.86436194e-06     -0.148760811     0.978172965
12.5007             -0.145638571     0.978630515   5.75551062e-05  5.84604038e-06   5.75551063e-05  5.84604037e-06     -0.148204273     0.978247503
12.50077            -0.145081533     0.978703318   5.77154954e-05  5.82754574e-06   5.77154956e-05  5.82754573e-06     -0.147647089     0.978321795
12.50084            -0.144523848     0.978775873   5.78764176e-05  5.80887692e-06   5.78764178e-05  5.80887691e-06     -0.147089255     0.978395841
12.50091            -0.143965517     0.978848178   5.80378746e-05  5.79003276e-06   5.80378748e-05  5.79003275e-06     -0.146530772      0.97846964
12.50098            -0.143406537     0.978920234   5.81998686e-05  5.77101212e-06   5.81998688e-05  5.77101211e-06     -0.145971638      0.97854319
12.50105            -0.142846908     0.978992039   5.83624017e-05  5.75181384e-06   5.83624018e-05  5.75181384e-06     -0.145411852      0.97861649
12.50112            -0.142286629     0.979063592   5.85254758e-05  5.73243677e-06   5.85254759e-05  5.73243677e-06     -0.144851412     0.978689541
12.50119            -0.141725698     0.979134892    5.8689093e-05  5.71287973e-06   5.86890932e-05  5.71287973e-06     -0.144290317      0.97876234
12.50126            -0.141164113     0.979205939   5.88532555e-05  5.69314154e-06   5.88532557e-05  5.69314154e-06     -0.143728567     0.978834887
12.50133            -0.140601875     0.979276731   5.90179653e-05  5.67322103e-06   5.90179655e-05  5.67322102e-06      -0.14316616     0.978907181
12.5014             -0.140038981     0.979347267   5.91832246e-05  5.65311698e-06   5.91832247e-05  5.65311698e-06     -0.142603094      0.97897922
12.50147             -0.13947543     0.979417547   5.93490353e-05  5.63282822e-06   5.93490355e-05  5.63282821e-06     -0.142039368     0.979051005
12.50154            -0.138911222     0.979487569   5.95153998e-05  5.61235352e-06   5.95153999e-05  5.61235351e-06     -0.141474982     0.979122533
12.50161            -0.138346354     0.979557333     5.968232e-05  5.59169167e-06   5.96823202e-05  5.59169166e-06     -0.140909933     0.979193805
12.50168            -0.137780826     0.979626837   5.98497982e-05  5.57084145e-06   5.98497983e-05  5.57084144e-06     -0.140344222     0.979264819
12.50175            -0.137214636      0.97969608   6.00178364e-05  5.54980162e-06   6.00178366e-05  5.54980162e-06     -0.139777845     0.979335573
12.50182            -0.136647784     0.979765063   6.01864369e-05  5.52857095e-06    6.0186437e-05  5.52857095e-06     -0.139210803     0.979406068
12.50189            -0.136080267     0.979833782   6.03556017e-05  5.50714819e-06   6.03556019e-05  5.50714818e-06     -0.138643093     0.979476302
12.50196            -0.135512085     0.979902239   6.05253332e-05  5.48553208e-06   6.05253333e-05  5.48553207e-06     -0.138074715     0.979546274
12.50203            -0.134943236     0.979970431   6.06956334e-05  5.46372135e-06   6.06956335e-05  5.46372135e-06     -0.137505668     0.979615983
12.5021              -0.13437372     0.980038357   6.08665045e-05  5.44171475e-06   6.08665047e-05  5.44171474e-06     -0.136935949     0.979685428
12.50217            -0.133803534     0.980106017   6.10379488e-05  5.41951097e-06   6.10379489e-05  5.41951097e-06     -0.136365559     0.979754609
12.50224            -0.133232678      0.98017341   6.12099684e-05  5.39710875e-06   6.12099686e-05  5.39710874e-06     -0.135794494     0.979823523
12.50231             -0.13266115     0.980240534   6.13825657e-05  5.37450677e-06   6.13825658e-05  5.37450676e-06     -0.135222755     0.979892171
12.50238            -0.132088949     0.980307389   6.15557427e-05  5.35170374e-06   6.15557429e-05  5.35170373e-06      -0.13465034      0.97996055
12.50245            -0.131516074     0.980373973   6.17295018e-05  5.32869833e-06    6.1729502e-05  5.32869832e-06     -0.134077248     0.980028661
12.50252            -0.130942523     0.980440286   6.19038453e-05  5.30548924e-06   6.19038454e-05  5.30548923e-06     -0.133503477     0.980096502
12.50259            -0.130368296     0.980506326   6.20787753e-05  5.28207512e-06   6.20787754e-05  5.28207511e-06     -0.132929026     0.980164072
12.50266            -0.129793391     0.980572093   6.22542941e-05  5.25845464e-06   6.22542943e-05  5.25845463e-06     -0.132353895     0.980231369
12.50273            -0.129217806     0.980637586    6.2430404e-05  5.23462644e-06   6.24304042e-05  5.23462643e-06      -0.13177808     0.980298394
12.5028              -0.12864154     0.980702802   6.26071074e-05  5.21058918e-06   6.26071076e-05  5.21058917e-06     -0.131201582     0.980365145
12.50287            -0.128064593     0.980767742   6.27844065e-05  5.18634149e-06   6.27844066e-05  5.18634148e-06     -0.130624398      0.98043162
12.50294            -0.127486962     0.980832405   6.29623036e-05  5.16188198e-06   6.29623037e-05  5.16188197e-06     -0.130046529      0.98049782
12.50301            -0.126908647     0.980896788    6.3140801e-05  5.13720928e-06   6.31408011e-05  5.13720927e-06     -0.129467971     0.980563742
12.50308            -0.126329647     0.980960892   6.33199011e-05    5.112322e-06   6.33199012e-05  5.11232199e-06     -0.128888725     0.980629386
12.50315            -0.125749959     0.981024715   6.34996062e-05  5.08721873e-06   6.34996063e-05  5.08721872e-06     -0.128308788      0.98069475
12.50322            -0.125169582     0.981088256   6.36799186e-05  5.06189806e-06   6.36799188e-05  5.06189805e-06      -0.12772816     0.980759834
12.50329            -0.124588516     0.981151514   6.38608408e-05  5.03635858e-06    6.3860841e-05  5.03635857e-06     -0.127146838     0.980824637
12.50336            -0.124006759     0.981214488   6.40423751e-05  5.01059885e-06   6.40423752e-05  5.01059884e-06     -0.126564823     0.980889157
12.50343            -0.123424309     0.981277177   6.42245238e-05  4.98461743e-06    6.4224524e-05  4.98461742e-06     -0.125982112     0.980953393
12.5035             -0.122841166      0.98133958   6.44072894e-05  4.95841288e-06   6.44072895e-05  4.95841287e-06     -0.125398703     0.981017345
12.50357            -0.122257328     0.981401695   6.45906742e-05  4.93198374e-06   6.45906744e-05  4.93198373e-06     -0.124814597     0.981081011
12.50364            -0.121672793     0.981463522   6.47746807e-05  4.90532854e-06   6.47746809e-05  4.90532853e-06     -0.124229791      0.98114439
12.50371            -0.121087561      0.98152506   6.49593113e-05  4.87844581e-06   6.49593115e-05   4.8784458e-06     -0.123644284     0.981207481
12.50378             -0.12050163     0.981586307   6.51445684e-05  4.85133406e-06   6.51445686e-05  4.85133405e-06     -0.123058075     0.981270284
12.50385            -0.119914999     0.981647262   6.53304545e-05   4.8239918e-06   6.53304547e-05  4.82399178e-06     -0.122471162     0.981332795
12.50392            -0.119327666     0.981707925    6.5516972e-05  4.79641751e-06   6.55169722e-05   4.7964175e-06     -0.121883544     0.981395016
12.50399             -0.11873963     0.981768293   6.57041234e-05  4.76860969e-06   6.57041236e-05  4.76860967e-06      -0.12129522     0.981456944
12.50406            -0.118150889     0.981828367   6.58919112e-05   4.7405668e-06   6.58919113e-05  4.74056679e-06     -0.120706188     0.981518579
12.50413            -0.117561443     0.981888145   6.60803378e-05  4.71228732e-06   6.60803379e-05  4.71228731e-06     -0.120116447     0.981579919
12.5042              -0.11697129     0.981947625   6.62694057e-05   4.6837697e-06   6.62694059e-05  4.68376969e-06     -0.119525996     0.981640963
12.50427            -0.116380429     0.982006807   6.64591175e-05  4.65501239e-06   6.64591176e-05  4.65501238e-06     -0.118934832     0.981701711
12.50434            -0.115788858     0.982065689   6.66494756e-05  4.62601381e-06   6.66494758e-05   4.6260138e-06     -0.118342956      0.98176216
12.50441            -0.115196575      0.98212427   6.68404826e-05  4.59677239e-06   6.68404828e-05  4.59677238e-06     -0.117750365      0.98182231
12.50448            -0.114603581      0.98218255   6.70321411e-05  4.56728655e-06   6.70321413e-05  4.56728654e-06     -0.117157059      0.98188216
12.50455            -0.114009872     0.982240527   6.72244535e-05  4.53755469e-06   6.72244537e-05  4.53755468e-06     -0.116563035     0.981941708
12.50462            -0.113415449       0.9822982   6.74174225e-05  4.50757521e-06   6.74174227e-05   4.5075752e-06     -0.115968292     0.982000954
12.50469            -0.112820308     0.982355567   6.76110506e-05  4.47734648e-06   6.76110508e-05  4.47734647e-06      -0.11537283     0.982059896
12.50476             -0.11222445     0.982412628   6.78053404e-05  4.44686688e-06   6.78053406e-05  4.44686687e-06     -0.114776646     0.982118533
12.50483            -0.111627873     0.982469382   6.80002945e-05  4.41613478e-06   6.80002947e-05  4.41613476e-06     -0.114179739     0.982176864
12.5049             -0.111030575     0.982525826   6.81959155e-05  4.38514851e-06   6.81959157e-05  4.38514849e-06     -0.113582108     0.982234887
12.50497            -0.110432555     0.982581961    6.8392206e-05  4.35390642e-06   6.83922062e-05  4.35390641e-06     -0.112983752     0.982292602
12.50504            -0.109833811     0.982637784   6.85891687e-05  4.32240685e-06   6.85891689e-05  4.32240683e-06     -0.112384668     0.982350008
12.50511            -0.109234342     0.982693296   6.87868062e-05   4.2906481e-06   6.87868064e-05  4.29064809e-06     -0.111784856     0.982407102
12.50518            -0.108634148     0.982748493   6.89851211e-05  4.25862849e-06   6.89851213e-05  4.25862847e-06     -0.111184315     0.982463885
12.50525            -0.108033225     0.982803376   6.91841161e-05  4.22634631e-06   6.91841163e-05  4.22634629e-06     -0.110583042     0.982520354
12.50532            -0.107431574     0.982857943   6.93837939e-05  4.19379984e-06   6.93837941e-05  4.19379983e-06     -0.109981036     0.982576509
12.50539            -0.106829192     0.982912193   6.95841571e-05  4.16098737e-06   6.95841573e-05  4.16098735e-06     -0.109378297     0.982632348
12.50546            -0.106226079     0.982966125   6.97852086e-05  4.12790714e-06   6.97852087e-05  4.12790713e-06     -0.108774822      0.98268787
12.50553            -0.105622232     0.983019737   6.99869509e-05  4.09455742e-06    6.9986951e-05  4.09455741e-06      -0.10817061     0.982743074
12.5056              -0.10501765     0.983073028   7.01893868e-05  4.06093645e-06   7.01893869e-05  4.06093643e-06     -0.107565659     0.982797959
12.50567            -0.104412332     0.983125997    7.0392519e-05  4.02704244e-06   7.03925192e-05  4.02704242e-06     -0.106959969     0.982852523
12.50574            -0.103806277     0.983178643   7.05963503e-05  3.99287361e-06   7.05963505e-05   3.9928736e-06     -0.106353538     0.982906766
12.50581            -0.103199483     0.983230964   7.08008835e-05  3.95842818e-06   7.08008836e-05  3.95842816e-06     -0.105746365     0.982960685
12.50588            -0.102591949      0.98328296   7.10061212e-05  3.92370433e-06   7.10061214e-05  3.92370431e-06     -0.105138447      0.98301428
12.50595            -0.101983672     0.983334629   7.12120664e-05  3.88870024e-06   7.12120666e-05  3.88870023e-06     -0.104529784      0.98306755
12.50602            -0.101374653     0.983385969   7.14187217e-05  3.85341408e-06   7.14187219e-05  3.85341407e-06     -0.103920373     0.983120493
12.50609            -0.100764889      0.98343698     7.162609e-05  3.81784401e-06   7.16260902e-05  3.81784399e-06     -0.103310215     0.983173107
12.50616            -0.100154379     0.983487661   7.18341742e-05  3.78198817e-06   7.18341744e-05  3.78198816e-06     -0.102699306     0.983225393
12.50623            -0.099543121     0.983538009    7.2042977e-05   3.7458447e-06   7.20429771e-05  3.74584469e-06     -0.102087646     0.983277348
12.5063            -0.0989311143     0.983588024   7.22525012e-05  3.70941171e-06   7.22525014e-05   3.7094117e-06     -0.101475234     0.983328971
12.50637           -0.0983183571     0.983637704   7.24627498e-05  3.67268731e-06     7.246275e-05   3.6726873e-06     -0.100862067      0.98338026
12.50644            -0.097704848     0.983687049   7.26737256e-05   3.6356696e-06   7.26737258e-05  3.63566958e-06     -0.100248145     0.983431216
12.50651           -0.0970905856     0.983736056   7.28854315e-05  3.59835666e-06   7.28854317e-05  3.59835664e-06    -0.0996334651     0.983481835
12.50658           -0.0964755684     0.983784725   7.30978704e-05  3.56074655e-06   7.30978706e-05  3.56074653e-06    -0.0990180269     0.983532118
12.50665           -0.0958597949     0.983833054   7.33110452e-05  3.52283734e-06   7.33110454e-05  3.52283732e-06    -0.0984018285     0.983582062
12.50672           -0.0952432637     0.983881042   7.35249588e-05  3.48462706e-06   7.35249589e-05  3.48462704e-06    -0.0977848685     0.983631667
12.50679           -0.0946259732     0.983928688   7.37396141e-05  3.44611376e-06   7.37396142e-05  3.44611374e-06    -0.0971671455     0.983680931
12.50686           -0.0940079221      0.98397599   7.39550141e-05  3.40729544e-06   7.39550143e-05  3.40729542e-06    -0.0965486578     0.983729852
12.50693           -0.0933891088     0.984022946   7.41711617e-05  3.36817012e-06   7.41711619e-05   3.3681701e-06    -0.0959294041      0.98377843
12.507             -0.0927695319     0.984069557     7.438806e-05  3.32873578e-06   7.43880602e-05  3.32873576e-06    -0.0953093828     0.983826663
12.50707           -0.0921491898      0.98411582   7.46057118e-05  3.28899039e-06    7.4605712e-05  3.28899038e-06    -0.0946885925     0.983874549
12.50714           -0.0915280811     0.984161734   7.48241203e-05  3.24893194e-06   7.48241204e-05  3.24893193e-06    -0.0940670316     0.983922088
12.50721           -0.0909062043     0.984207297   7.50432883e-05  3.20855837e-06   7.50432885e-05  3.20855835e-06    -0.0934446987     0.983969278
12.50728           -0.0902835579     0.984252509    7.5263219e-05  3.16786761e-06   7.52632192e-05  3.16786759e-06    -0.0928215921     0.984016118
12.50735           -0.0896601404     0.984297368   7.54839153e-05   3.1268576e-06   7.54839155e-05  3.12685758e-06    -0.0921977105     0.984062606
12.50742           -0.0890359503     0.984341872   7.57053804e-05  3.08552623e-06   7.57053805e-05  3.08552621e-06    -0.0915730522     0.984108741
12.50749            -0.088410986      0.98438602   7.59276172e-05  3.04387141e-06   7.59276173e-05  3.04387139e-06    -0.0909476158     0.984154521
12.50756           -0.0877852462     0.984429812   7.61506288e-05  3.00189103e-06    7.6150629e-05  3.00189101e-06    -0.0903213998     0.984199946
12.50763           -0.0871587292     0.984473244   7.63744184e-05  2.95958293e-06   7.63744186e-05  2.95958292e-06    -0.0896944026     0.984245014
12.5077            -0.0865314335     0.984516317   7.65989891e-05    2.916945e-06   7.65989892e-05  2.91694498e-06    -0.0890666226     0.984289723
12.50777           -0.0859033577     0.984559028   7.68243439e-05  2.87397505e-06    7.6824344e-05  2.87397503e-06    -0.0884380584     0.984334071
12.50784           -0.0852745002     0.984601377    7.7050486e-05  2.83067092e-06   7.70504861e-05   2.8306709e-06    -0.0878087084     0.984378059
12.50791           -0.0846448594     0.984643361   7.72774185e-05  2.78703043e-06   7.72774187e-05   2.7870304e-06    -0.0871785711     0.984421684
12.50798           -0.0840144339      0.98468498   7.75051446e-05  2.74305135e-06   7.75051448e-05  2.74305133e-06    -0.0865476449     0.984464944
12.50805           -0.0833832221     0.984726232   7.77336675e-05  2.69873149e-06   7.77336677e-05  2.69873147e-06    -0.0859159283     0.984507839
12.50812           -0.0827512225     0.984767115   7.79629903e-05   2.6540686e-06   7.79629905e-05  2.65406858e-06    -0.0852834197     0.984550367
12.50819           -0.0821184335     0.984807629   7.81931163e-05  2.60906043e-06   7.81931165e-05  2.60906041e-06    -0.0846501176     0.984592527
12.50826           -0.0814848536     0.984847771   7.84240486e-05  2.56370473e-06   7.84240488e-05  2.56370471e-06    -0.0840160203     0.984634316
12.50833           -0.0808504812     0.984887541   7.86557906e-05  2.51799922e-06   7.86557908e-05   2.5179992e-06    -0.0833811264     0.984675734
12.5084            -0.0802153148     0.984926936   7.88883453e-05   2.4719416e-06   7.88883455e-05  2.47194158e-06    -0.0827454343      0.98471678
12.50847           -0.0795793529     0.984965956   7.91217162e-05  2.42552957e-06   7.91217164e-05  2.42552955e-06    -0.0821089423     0.984757451
12.50854           -0.0789425938     0.985004599   7.93559064e-05  2.37876079e-06   7.93559066e-05  2.37876077e-06     -0.081471649     0.984797746
12.50861            -0.078305036     0.985042863   7.95909193e-05  2.33163294e-06   7.95909195e-05  2.33163292e-06    -0.0808335527     0.984837664
12.50868           -0.0776666779     0.985080748   7.98267581e-05  2.28414366e-06   7.98267583e-05  2.28414364e-06    -0.0801946519     0.984877204
12.50875            -0.077027518      0.98511825   8.00634262e-05  2.23629057e-06   8.00634264e-05  2.23629055e-06    -0.0795549449     0.984916363
12.50882           -0.0763875547      0.98515537   8.03009269e-05  2.18807129e-06   8.03009271e-05  2.18807127e-06    -0.0789144303     0.984955141
12.50889           -0.0757467864     0.985192105   8.05392635e-05  2.13948342e-06   8.05392637e-05  2.13948339e-06    -0.0782731063     0.984993535
12.50896           -0.0751052115     0.985228455   8.07784394e-05  2.09052453e-06   8.07784396e-05  2.09052451e-06    -0.0776309714     0.985031545
12.50903           -0.0744628285     0.985264417    8.1018458e-05   2.0411922e-06   8.10184582e-05  2.04119218e-06     -0.076988024     0.985069169
12.5091            -0.0738196357      0.98529999   8.12593226e-05  1.99148397e-06   8.12593228e-05  1.99148395e-06    -0.0763442625     0.985106405
12.50917           -0.0731756316     0.985335172   8.15010367e-05  1.94139738e-06   8.15010369e-05  1.94139736e-06    -0.0756996852     0.985143252
12.50924           -0.0725308145     0.985369962   8.17436037e-05  1.89092994e-06   8.17436039e-05  1.89092992e-06    -0.0750542906     0.985179708
12.50931           -0.0718851829     0.985404359    8.1987027e-05  1.84007914e-06   8.19870272e-05  1.84007912e-06    -0.0744080771     0.985215772
12.50938           -0.0712387352     0.985438361     8.223131e-05  1.78884248e-06   8.22313102e-05  1.78884246e-06    -0.0737610429     0.985251443
12.50945           -0.0705914697     0.985471966   8.24764563e-05  1.73721742e-06   8.24764564e-05  1.73721739e-06    -0.0731131866     0.985286717
12.50952           -0.0699433848     0.985505173   8.27224692e-05   1.6852014e-06   8.27224694e-05  1.68520138e-06    -0.0724645064     0.985321595
12.50959            -0.069294479     0.985537981   8.29693524e-05  1.63279186e-06   8.29693526e-05  1.63279184e-06    -0.0718150008     0.985356075
12.50966           -0.0686447506     0.985570387   8.32171092e-05  1.57998621e-06   8.32171094e-05  1.57998619e-06    -0.0711646681     0.985390155
12.50973           -0.0679941979      0.98560239   8.34657433e-05  1.52678185e-06   8.34657435e-05  1.52678183e-06    -0.0705135066     0.985423832
12.5098            -0.0673428194     0.985633988   8.37152582e-05  1.47317616e-06   8.37152584e-05  1.47317614e-06    -0.0698615147     0.985457107
12.50987           -0.0666906134     0.985665181   8.39656574e-05   1.4191665e-06   8.39656576e-05  1.41916648e-06    -0.0692086909     0.985489977
12.50994           -0.0660375783     0.985695966   8.42169445e-05  1.36475021e-06   8.42169447e-05  1.36475019e-06    -0.0685550333     0.985522441
12.51001           -0.0653837125     0.985726342   8.44691231e-05  1.30992462e-06   8.44691233e-05  1.30992459e-06    -0.0679005404     0.985554497
12.51008           -0.0647290142     0.985756307   8.47221968e-05  1.25468703e-06   8.47221969e-05  1.25468701e-06    -0.0672452105     0.985586143
12.51015           -0.0640734819      0.98578586   8.49761691e-05  1.19903474e-06   8.49761693e-05  1.19903472e-06    -0.0665890419     0.985617378
12.51022           -0.0634171139     0.985814998   8.52310439e-05  1.14296502e-06   8.52310441e-05    1.142965e-06     -0.065932033       0.9856482
12.51029           -0.0627599086     0.985843721   8.54868246e-05  1.08647513e-06   8.54868248e-05   1.0864751e-06    -0.0652741821     0.985678608
12.51036           -0.0621018642     0.985872027    8.5743515e-05  1.02956228e-06   8.57435152e-05  1.02956226e-06    -0.0646154875       0.9857086
12.51043           -0.0614429792     0.985899914   8.60011187e-05  9.72223711e-07   8.60011189e-05  9.72223685e-07    -0.0639559475     0.985738174
12.5105            -0.0607832519      0.98592738   8.62596395e-05  9.14456607e-07   8.62596397e-05  9.14456579e-07    -0.0632955606     0.985767329
12.51057           -0.0601226805     0.985954424   8.65190811e-05  8.56258148e-07   8.65190813e-05  8.56258124e-07    -0.0626343249     0.985796063
12.51064           -0.0594612635     0.985981044   8.67794472e-05  7.97625496e-07   8.67794474e-05  7.97625472e-07    -0.0619722387     0.985824374
12.51071           -0.0587989991     0.986007239   8.70407415e-05   7.3855579e-07   8.70407417e-05  7.38555763e-07    -0.0613093005      0.98585226
12.51078           -0.0581358857     0.986033006   8.73029679e-05  6.79046148e-07    8.7302968e-05  6.79046124e-07    -0.0606455085     0.985879721
12.51085           -0.0574719216     0.986058344     8.756613e-05  6.19093675e-07   8.75661302e-05  6.19093649e-07    -0.0599808609     0.985906754
12.51092            -0.056807105     0.986083252   8.78302317e-05  5.58695447e-07   8.78302319e-05  5.58695422e-07    -0.0593153561     0.985933358
12.51099           -0.0561414344     0.986107728   8.80952769e-05  4.97848531e-07   8.80952771e-05  4.97848504e-07    -0.0586489924      0.98595953
12.51106           -0.0554749079     0.986131769   8.83612693e-05  4.36549965e-07   8.83612695e-05  4.36549938e-07     -0.057981768      0.98598527
12.51113           -0.0548075239     0.986155375   8.86282128e-05  3.74796773e-07    8.8628213e-05  3.74796745e-07    -0.0573136813     0.986010575
12.5112            -0.0541392808     0.986178543   8.88961113e-05  3.12585954e-07   8.88961115e-05  3.12585926e-07    -0.0566447305     0.986035444
12.51127           -0.0534701767     0.986201273   8.91649687e-05  2.49914492e-07   8.91649689e-05  2.49914462e-07    -0.0559749139     0.986059875
12.51134           -0.0528002099     0.986223561   8.94347888e-05  1.86779344e-07    8.9434789e-05  1.86779313e-07    -0.0553042297     0.986083866
12.51141           -0.0521293789     0.986245407   8.97055755e-05  1.23177451e-07   8.97055757e-05  1.23177423e-07    -0.0546326762     0.986107416
12.51148           -0.0514576817     0.986266808   8.99773329e-05  5.91057346e-08   8.99773331e-05  5.91057042e-08    -0.0539602517     0.986130523
12.51155           -0.0507851168     0.986287763   9.02500649e-05 -5.43890821e-09   9.02500651e-05 -5.43894077e-09    -0.0532869544     0.986153184
12.51162           -0.0501116823     0.986308271   9.05237754e-05 -7.04596024e-08   9.05237756e-05 -7.04596306e-08    -0.0526127827     0.986175399
12.51169           -0.0494373766     0.986328328   9.07984684e-05 -1.35959489e-07   9.07984686e-05  -1.3595952e-07    -0.0519377346     0.986197165
12.51176           -0.0487621979     0.986347935    9.1074148e-05 -2.01941737e-07   9.10741482e-05 -2.01941767e-07    -0.0512618086     0.986218481
12.51183           -0.0480861445     0.986367088   9.13508181e-05  -2.6840953e-07   9.13508183e-05 -2.68409559e-07    -0.0505850027     0.986239345
12.5119            -0.0474092145     0.986385786   9.16284828e-05 -3.35366079e-07    9.1628483e-05 -3.35366109e-07    -0.0499073153     0.986259755
12.51197           -0.0467314064     0.986404027   9.19071462e-05 -4.02814614e-07   9.19071464e-05 -4.02814644e-07    -0.0492287446      0.98627971
12.51204           -0.0460527182     0.986421809   9.21868123e-05 -4.70758387e-07   9.21868125e-05 -4.70758421e-07    -0.0485492888     0.986299206
12.51211           -0.0453731483     0.986439131   9.24674853e-05 -5.39200674e-07   9.24674855e-05 -5.39200705e-07    -0.0478689461     0.986318244
12.51218           -0.0446926949     0.986455991   9.27491692e-05 -6.08144772e-07   9.27491694e-05 -6.08144801e-07    -0.0471877148      0.98633682
12.51225           -0.0440113562     0.986472387   9.30318682e-05    -6.77594e-07   9.30318684e-05 -6.77594031e-07     -0.046505593     0.986354933
12.51232           -0.0433291305     0.986488317   9.33155865e-05 -7.47551701e-07   9.33155866e-05 -7.47551734e-07    -0.0458225791     0.986372582
12.51239            -0.042646016     0.986503779   9.36003281e-05 -8.18021241e-07   9.36003283e-05  -8.1802127e-07    -0.0451386711     0.986389763
12.51246           -0.0419620109     0.986518771   9.38860974e-05 -8.89006007e-07   9.38860975e-05 -8.89006038e-07    -0.0444538673     0.986406476
12.51253           -0.0412771134     0.986533292   9.41728984e-05 -9.60509409e-07   9.41728986e-05 -9.60509439e-07    -0.0437681659     0.986422719
12.5126            -0.0405913217     0.986547339   9.44607355e-05 -1.03253488e-06   9.44607357e-05 -1.03253492e-06    -0.0430815651     0.986438489
12.51267           -0.0399046341     0.986560911   9.47496128e-05 -1.10508589e-06    9.4749613e-05 -1.10508592e-06     -0.042394063     0.986453785
12.51274           -0.0392170487     0.986574006   9.50395347e-05 -1.17816591e-06   9.50395349e-05 -1.17816594e-06    -0.0417056579     0.986468605
12.51281           -0.0385285638     0.986586622   9.53305054e-05 -1.25177844e-06   9.53305056e-05 -1.25177847e-06     -0.041016348     0.986482946
12.51288           -0.0378391775     0.986598757   9.56225293e-05 -1.32592703e-06   9.56225295e-05 -1.32592706e-06    -0.0403261313     0.986496808
12.51295           -0.0371488881     0.986610409   9.59156105e-05 -1.40061521e-06   9.59156107e-05 -1.40061524e-06    -0.0396350061     0.986510188
12.51302           -0.0364576937     0.986621576   9.62097536e-05 -1.47584658e-06   9.62097538e-05 -1.47584661e-06    -0.0389429706     0.986523084
12.51309           -0.0357655925     0.986632256   9.65049628e-05 -1.55162473e-06    9.6504963e-05 -1.55162476e-06    -0.0382500229     0.986535495
12.51316           -0.0350725827     0.986642448   9.68012425e-05 -1.62795328e-06   9.68012427e-05 -1.62795332e-06    -0.0375561612     0.986547417
12.51323           -0.0343786625     0.986652149   9.70985971e-05 -1.70483591e-06   9.70985973e-05 -1.70483594e-06    -0.0368613837      0.98655885
12.5133              -0.03368383     0.986661357    9.7397031e-05 -1.78227627e-06   9.73970312e-05  -1.7822763e-06    -0.0361656884     0.986569792
12.51337           -0.0329880834     0.986670071   9.76965488e-05 -1.86027807e-06    9.7696549e-05 -1.86027811e-06    -0.0354690735      0.98658024
12.51344           -0.0322914209     0.986678288   9.79971547e-05 -1.93884505e-06   9.79971549e-05 -1.93884509e-06    -0.0347715372     0.986590192