! This file was generated by CST Filter Designer 3D
! _________________________________________________
! Date:                         04.09.2025 07:06:27

# MHZ S RI R 50
!              Frequency                 Re(S11)                 Im(S11)                 Re(S21)                 Im(S21)                 Re(S12)                 Im(S12)                 Re(S22)                 Im(S22)
                   28800      -0.774887770276767       0.626678269436636    5.80032839532948e-05    6.76204525065197e-05    5.80032839532948e-05    6.76204525065197e-05      -0.774887770276767       0.626678269436636
                 28801.8      -0.773933670626316       0.627831360932012    5.88497237119573e-05    6.83905761864281e-05    5.88497237119573e-05    6.83905761864281e-05      -0.773933670626316       0.627831360932012
                 28803.6      -0.772973496715072       0.628988181848434    5.97102211834725e-05    6.91705636249664e-05    5.97102211834725e-05    6.91705636249664e-05      -0.772973496715072       0.628988181848434
                 28805.4      -0.772007196535742       0.630148745913719    6.05850380626939e-05    6.99605518760797e-05    6.05850380626939e-05    6.99605518760797e-05      -0.772007196535742       0.630148745913719
                 28807.2      -0.771034717519345       0.631313066857689    6.14744414363014e-05    7.07606799596109e-05    6.14744414363014e-05    7.07606799596109e-05      -0.771034717519345       0.631313066857689
                   28809      -0.770056006527878       0.632481158410539    6.23787039044176e-05    7.15710888875814e-05    6.23787039044176e-05    7.15710888875814e-05      -0.770056006527878       0.632481158410539
                 28810.8      -0.769071009846865       0.633653034301172    6.32981037051963e-05    7.23919216906842e-05    6.32981037051963e-05    7.23919216906842e-05      -0.769071009846865       0.633653034301172
                 28812.6      -0.768079673177782        0.63482870825548    6.42329248424709e-05    7.32233234449898e-05    6.42329248424709e-05    7.32233234449898e-05      -0.768079673177782        0.63482870825548
                 28814.4      -0.767081941630381       0.636008193994573    6.51834572165276e-05    7.40654412988459e-05    6.51834572165276e-05    7.40654412988459e-05      -0.767081941630381       0.636008193994573
                 28816.2      -0.766077759714883       0.637191505232958    6.61499967580981e-05     7.4918424499974e-05    6.61499967580981e-05     7.4918424499974e-05      -0.766077759714883       0.637191505232958
                   28818      -0.765067071334056       0.638378655676658    6.71328455656489e-05    7.57824244227493e-05    6.71328455656489e-05    7.57824244227493e-05      -0.765067071334056       0.638378655676658
                 28819.8      -0.764049819775173       0.639569659021272    6.81323120460536e-05    7.66575945956539e-05    6.81323120460536e-05    7.66575945956539e-05      -0.764049819775173       0.639569659021272
                 28821.6      -0.763025947701832       0.640764528949999    6.91487110587586e-05    7.75440907289145e-05    6.91487110587586e-05    7.75440907289145e-05      -0.763025947701832       0.640764528949999
                 28823.4      -0.761995397145668       0.641963279131569    7.01823640634924e-05    7.84420707422758e-05    7.01823640634924e-05    7.84420707422758e-05      -0.761995397145668       0.641963279131569
                 28825.2      -0.760958109497913        0.64316592321815    7.12335992716628e-05    7.93516947929452e-05    7.12335992716628e-05    7.93516947929452e-05      -0.760958109497913        0.64316592321815
                   28827      -0.759914025500845       0.644372474843163    7.23027518014972e-05    8.02731253036599e-05    7.23027518014972e-05    8.02731253036599e-05      -0.759914025500845       0.644372474843163
                 28828.8      -0.758863085239091       0.645582947619048    7.33901638370542e-05    8.12065269908889e-05    7.33901638370542e-05    8.12065269908889e-05      -0.758863085239091       0.645582947619048
                 28830.6      -0.757805228130788        0.64679735513497    7.44961847912002e-05    8.21520668931502e-05    7.44961847912002e-05    8.21520668931502e-05      -0.757805228130788        0.64679735513497
                 28832.4      -0.756740392918626       0.648015710954437    7.56211714726443e-05    8.31099143994181e-05    7.56211714726443e-05    8.31099143994181e-05      -0.756740392918626       0.648015710954437
                 28834.2      -0.755668517660723       0.649238028612874     7.6765488257169e-05     8.4080241277632e-05     7.6765488257169e-05     8.4080241277632e-05      -0.755668517660723       0.649238028612874
                   28836      -0.754589539721374       0.650464321615105    7.79295072631433e-05    8.50632217032684e-05    7.79295072631433e-05    8.50632217032684e-05      -0.754589539721374       0.650464321615105
                 28837.8      -0.753503395761643       0.651694603432781    7.91136085314446e-05     8.6059032287971e-05    7.91136085314446e-05     8.6059032287971e-05      -0.753503395761643       0.651694603432781
                 28839.6      -0.752410021729818        0.65292888750171    8.03181802099001e-05    8.70678521082141e-05    8.03181802099001e-05    8.70678521082141e-05      -0.752410021729818        0.65292888750171
                 28841.4      -0.751309352851693       0.654167187219139    8.15436187423894e-05    8.80898627339989e-05    8.15436187423894e-05    8.80898627339989e-05      -0.751309352851693       0.654167187219139
                 28843.2       -0.75020132362071        0.65540951594094    8.27903290627133e-05    8.91252482575442e-05    8.27903290627133e-05    8.91252482575442e-05       -0.75020132362071        0.65540951594094
                   28845      -0.749085867787955       0.656655886978699    8.40587247933452e-05     9.0174195321944e-05    8.40587247933452e-05     9.0174195321944e-05      -0.749085867787955       0.656655886978699
                 28846.8      -0.747962918351954       0.657906313596766    8.53492284492576e-05    9.12368931498156e-05    8.53492284492576e-05    9.12368931498156e-05      -0.747962918351954       0.657906313596766
                 28848.6       -0.74683240754834       0.659160809009183    8.66622716468902e-05    9.23135335718623e-05    8.66622716468902e-05    9.23135335718623e-05       -0.74683240754834       0.659160809009183
                 28850.4      -0.745694266839347        0.66041938637653    8.79982953184274e-05    9.34043110553433e-05    8.79982953184274e-05    9.34043110553433e-05      -0.745694266839347        0.66041938637653
                 28852.2      -0.744548426903125       0.661682058802692    8.93577499315495e-05    9.45094227324473e-05    8.93577499315495e-05    9.45094227324473e-05      -0.744548426903125       0.661682058802692
                   28854       -0.74339481762288       0.662948839331529    9.07410957147818e-05    9.56290684285167e-05    9.07410957147818e-05    9.56290684285167e-05       -0.74339481762288       0.662948839331529
                 28855.8      -0.742233368075845       0.664219740943456     9.2148802888604e-05    9.67634506901064e-05     9.2148802888604e-05    9.67634506901064e-05      -0.742233368075845       0.664219740943456
                 28857.6      -0.741064006522084       0.665494776551897    9.35813519024543e-05    9.79127748128244e-05    9.35813519024543e-05    9.79127748128244e-05      -0.741064006522084       0.665494776551897
                 28859.4      -0.739886660393079        0.66677395899969      9.503923367785e-05    9.90772488689723e-05      9.503923367785e-05    9.90772488689723e-05      -0.739886660393079        0.66677395899969
                 28861.2       -0.73870125628016        0.66805730105534    9.65229498577124e-05    0.000100257083734888    9.65229498577124e-05    0.000100257083734888       -0.73870125628016        0.66805730105534
                   28863      -0.737507719922737       0.669344815409194    9.80330130621358e-05    0.000101452493118009    9.80330130621358e-05    0.000101452493118009      -0.737507719922737       0.669344815409194
                 28864.8      -0.736305976196331       0.670636514669503    9.95699471507312e-05    0.000102663693583584    9.95699471507312e-05    0.000102663693583584      -0.736305976196331       0.670636514669503
                 28866.6      -0.735095949100414       0.671932411358364    0.000101134287491752    0.000103890904581009    0.000101134287491752    0.000103890904581009      -0.735095949100414       0.671932411358364
                 28868.4      -0.733877561746055       0.673232517907553     0.00010272658123817    0.000105134348469732     0.00010272658123817    0.000105134348469732      -0.733877561746055       0.673232517907553
                 28870.2      -0.732650736343347       0.674536846654242    0.000104347387610916    0.000106394250544712    0.000104347387610916    0.000106394250544712      -0.732650736343347       0.674536846654242
                   28872      -0.731415394188637       0.675845409836593    0.000105997278189463    0.000107670839061343    0.000105997278189463    0.000107670839061343      -0.731415394188637       0.675845409836593
                 28873.8      -0.730171455651531       0.677158219589225    0.000107676837209967    0.000108964345259833    0.000107676837209967    0.000108964345259833      -0.730171455651531       0.677158219589225
                 28875.6      -0.728918840161698       0.678475287938562    0.000109386661871167    0.000110275003388957    0.000109386661871167    0.000110275003388957      -0.728918840161698       0.678475287938562
                 28877.4      -0.727657466195443       0.679796626798032    0.000111127362648265    0.000111603050729144    0.000111127362648265    0.000111603050729144      -0.727657466195443       0.679796626798032
                 28879.2      -0.726387251262056       0.681122247963153    0.000112899563615011    0.000112948727614845    0.000112899563615011    0.000112948727614845      -0.726387251262056       0.681122247963153
                   28881      -0.725108111889941       0.682452163106461    0.000114703902774209    0.000114312277456097    0.000114703902774209    0.000114312277456097      -0.725108111889941       0.682452163106461
                 28882.8      -0.723819963612489       0.683786383772311    0.000116541032396903    0.000115693946759264    0.000116541032396903    0.000115693946759264      -0.723819963612489       0.683786383772311
                 28884.6      -0.722522720953741       0.685124921371517     0.00011841161937045    0.000117093985146832     0.00011841161937045    0.000117093985146832      -0.722522720953741       0.685124921371517
                 28886.4       -0.72121629741379       0.686467787175856    0.000120316345555768    0.000118512645376233    0.000120316345555768    0.000118512645376233       -0.72121629741379       0.686467787175856
                 28888.2      -0.719900605453932       0.687814992312408    0.000122255908153988    0.000119950183357609    0.000122255908153988    0.000119950183357609      -0.719900605453932       0.687814992312408
                   28890      -0.718575556481586       0.689166547757733    0.000124231020082774    0.000121406858170417    0.000124231020082774    0.000121406858170417      -0.718575556481586       0.689166547757733
                 28891.8      -0.717241060834944       0.690522464331889    0.000126242410362602    0.000122882932078833    0.000126242410362602    0.000122882932078833      -0.717241060834944       0.690522464331889
                 28893.6      -0.715897027767335       0.691882752692299    0.000128290824513286    0.000124378670545849    0.000128290824513286    0.000124378670545849      -0.715897027767335       0.691882752692299
                 28895.4      -0.714543365431376       0.693247423327408    0.000130377024960971    0.000125894342245945    0.000130377024960971    0.000125894342245945      -0.714543365431376       0.693247423327408
                 28897.2      -0.713179980862802       0.694616486550195    0.000132501791455987    0.000127430219076303    0.000132501791455987    0.000127430219076303      -0.713179980862802       0.694616486550195
                   28899      -0.711806779964037       0.695989952491484    0.000134665921501801    0.000128986576166407    0.000134665921501801    0.000128986576166407      -0.711806779964037       0.695989952491484
                 28900.8      -0.710423667487476       0.697367831093085    0.000136870230795412    0.000130563691885954    0.000136870230795412    0.000130563691885954      -0.710423667487476       0.697367831093085
                 28902.6        -0.7090305470185       0.698750132100706    0.000139115553679469    0.000132161847850941    0.000139115553679469    0.000132161847850941        -0.7090305470185       0.698750132100706
                 28904.4      -0.707627320958158       0.700136865056716    0.000141402743606541    0.000133781328927866    0.000141402743606541    0.000133781328927866      -0.707627320958158       0.700136865056716
                 28906.2      -0.706213890505568       0.701528039292668    0.000143732673615776    0.000135422423235853    0.000143732673615776    0.000135422423235853      -0.706213890505568       0.701528039292668
                   28908      -0.704790155640041       0.702923663921605    0.000146106236822323    0.000137085422146594    0.000146106236822323    0.000137085422146594      -0.704790155640041       0.702923663921605
                 28909.8      -0.703356015102823       0.704323747830195    0.000148524346919993    0.000138770620282047    0.000148524346919993    0.000138770620282047      -0.703356015102823       0.704323747830195
                 28911.6      -0.701911366378591       0.705728299670591    0.000150987938697347    0.000140478315509615    0.000150987938697347    0.000140478315509615      -0.701911366378591       0.705728299670591
                 28913.4       -0.70045610567657         0.7071373278521    0.000153497968567758    0.000142208808934787    0.000153497968567758    0.000142208808934787       -0.70045610567657         0.7071373278521
                 28915.2      -0.698990127911354       0.708550840532592    0.000156055415113757    0.000143962404891008    0.000156055415113757    0.000143962404891008      -0.698990127911354       0.708550840532592
                   28917      -0.697513326683364       0.709968845609688    0.000158661279646105    0.000145739410926651    0.000158661279646105    0.000145739410926651      -0.697513326683364       0.709968845609688
                 28918.8      -0.696025594258976       0.711391350711678    0.000161316586777991    0.000147540137788897    0.000161316586777991    0.000147540137788897      -0.696025594258976       0.711391350711678
                 28920.6      -0.694526821550297       0.712818363188191    0.000164022385014803    0.000149364899404374    0.000164022385014803    0.000149364899404374      -0.694526821550297       0.712818363188191
                 28922.4      -0.693016898094558       0.714249890100623    0.000166779747359958    0.000151214012856363    0.000166779747359958    0.000151214012856363      -0.693016898094558       0.714249890100623
                 28924.2      -0.691495712033179       0.715685938212251     0.00016958977193714    0.000153087798358333     0.00016958977193714    0.000153087798358333      -0.691495712033179       0.715685938212251
                   28926      -0.689963150090427       0.717126513978099    0.000172453582629546    0.000154986579223659    0.000172453582629546    0.000154986579223659      -0.689963150090427       0.717126513978099
                 28927.8      -0.688419097551711       0.718571623534513    0.000175372329736546    0.000156910681831269    0.000175372329736546    0.000156910681831269      -0.688419097551711       0.718571623534513
                 28929.6       -0.68686343824148       0.720021272688426    0.000178347190648292    0.000158860435587017    0.000178347190648292    0.000158860435587017       -0.68686343824148       0.720021272688426
                 28931.4      -0.685296054500711       0.721475466906344    0.000181379370538804     0.00016083617288053    0.000181379370538804     0.00016083617288053      -0.685296054500711       0.721475466906344
                 28933.2      -0.683716827164036       0.722934211302979    0.000184470103077983     0.00016283822903726    0.000184470103077983     0.00016283822903726      -0.683716827164036       0.722934211302979
                   28935      -0.682125635536395       0.724397510629603     0.00018762065116325    0.000164866942265551     0.00018762065116325    0.000164866942265551      -0.682125635536395       0.724397510629603
                 28936.8      -0.680522357369308       0.725865369262048    0.000190832307671234    0.000166922653598379    0.000190832307671234    0.000166922653598379      -0.680522357369308       0.725865369262048
                 28938.6        -0.6789068688367       0.727337791188359    0.000194106396230153     0.00016900570682949    0.000194106396230153     0.00016900570682949        -0.6789068688367       0.727337791188359
                 28940.4      -0.677279044510293        0.72881477999611    0.000197444272013486    0.000171116448443677    0.000197444272013486    0.000171116448443677      -0.677279044510293        0.72881477999611
                 28942.2      -0.675638757334543       0.730296338859346    0.000200847322555543     0.00017325522754083    0.000200847322555543     0.00017325522754083      -0.675638757334543       0.730296338859346
                   28944      -0.673985878601118        0.73178247052516    0.000204316968589566    0.000175422395753475    0.000204316968589566    0.000175422395753475      -0.673985878601118        0.73178247052516
                 28945.8      -0.672320277922921       0.733273177299877     0.00020785466490901    0.000177618307157408     0.00020785466490901    0.000177618307157408      -0.672320277922921       0.733273177299877
                 28947.6      -0.670641823207599       0.734768461034863    0.000211461901252735    0.000179843318175141    0.000211461901252735    0.000179843318175141      -0.670641823207599       0.734768461034863
                 28949.4      -0.668950380630624       0.736268323111889    0.000215140203214649    0.000182097787471653    0.000215140203214649    0.000182097787471653      -0.668950380630624       0.736268323111889
                 28951.2      -0.667245814607808       0.737772764428123    0.000218891133178741    0.000184382075842212    0.000218891133178741    0.000184382075842212      -0.667245814607808       0.737772764428123
                   28953      -0.665527987767367       0.739281785380642    0.000222716291280005    0.000186696546091691    0.000222716291280005    0.000186696546091691      -0.665527987767367       0.739281785380642
                 28954.8      -0.663796760921431       0.740795385850534    0.000226617316392183    0.000189041562905063    0.000226617316392183    0.000189041562905063      -0.663796760921431       0.740795385850534
                 28956.6      -0.662051993037022        0.74231356518654    0.000230595887143068    0.000191417492708577    0.000230595887143068    0.000191417492708577      -0.662051993037022        0.74231356518654
                 28958.4      -0.660293541206535       0.743836322188178    0.000234653722958012    0.000193824703521061    0.000234653722958012    0.000193824703521061      -0.660293541206535       0.743836322188178
                 28960.2      -0.658521260617594       0.745363655088457    0.000238792585132783     0.00019626356479503    0.000238792585132783     0.00019626356479503      -0.658521260617594       0.745363655088457
                   28962       -0.65673500452241       0.746895561536016     0.00024301427793627    0.000198734447246864     0.00024301427793627    0.000198734447246864       -0.65673500452241       0.746895561536016
                 28963.8      -0.654934624206519       0.748432038576794    0.000247320649744165    0.000201237722675669    0.000247320649744165    0.000201237722675669      -0.654934624206519       0.748432038576794
                 28965.6      -0.653119968956957       0.749973082635143    0.000251713594204378    0.000203773763770136    0.000251713594204378    0.000203773763770136      -0.653119968956957       0.749973082635143
                 28967.4      -0.651290886029815       0.751518689494401    0.000256195051435189    0.000206342943902871    0.000256195051435189    0.000206342943902871      -0.651290886029815       0.751518689494401
                 28969.2       -0.64944722061719       0.753068854276897    0.000260767009257046     0.00020894563691151    0.000260767009257046     0.00020894563691151       -0.64944722061719       0.753068854276897
                   28971      -0.647588815813505       0.754623571423376    0.000265431504459002    0.000211582216865966    0.000265431504459002    0.000211582216865966      -0.647588815813505       0.754623571423376
                 28972.8       -0.64571551258119       0.756182834671814     0.00027019062410081    0.000214253057821142     0.00027019062410081    0.000214253057821142       -0.64571551258119       0.756182834671814
                 28974.6      -0.643827149715697       0.757746637035628    0.000275046506851711    0.000216958533554349    0.000275046506851711    0.000216958533554349      -0.643827149715697       0.757746637035628
                 28976.4      -0.641923563809864       0.759314970781225    0.000280001344366946    0.000219699017286661    0.000280001344366946    0.000219699017286661      -0.641923563809864       0.759314970781225
                 28978.2       -0.64000458921758       0.760887827404916    0.000285057382703151    0.000222474881387443    0.000285057382703151    0.000222474881387443       -0.64000458921758       0.760887827404916
                   28980      -0.638070058016757        0.76246519760913    0.000290216923773724    0.000225286497061181    0.000290216923773724    0.000225286497061181      -0.638070058016757        0.76246519760913
                 28981.8      -0.636119799971581       0.764047071277946    0.000295482326845355    0.000228134234015763    0.000295482326845355    0.000228134234015763      -0.636119799971581       0.764047071277946
                 28983.6      -0.634153642494065       0.765633437451869     0.00030085601007681    0.000231018460111226     0.00030085601007681    0.000231018460111226      -0.634153642494065       0.765633437451869
                 28985.4      -0.632171410604795       0.767224284301912    0.000306340452101452    0.000233939540988139    0.000306340452101452    0.000233939540988139      -0.632171410604795       0.767224284301912
                 28987.2       -0.63017292689298       0.768819599102858    0.000311938193654412    0.000236897839674447    0.000311938193654412    0.000236897839674447       -0.63017292689298       0.768819599102858
                   28989      -0.628158011475684       0.770419368205757    0.000317651839246008    0.000239893716169843    0.000317651839246008    0.000239893716169843      -0.628158011475684       0.770419368205757
                 28990.8      -0.626126481956271       0.772023577009592     0.00032348405888259    0.000242927527006502     0.00032348405888259    0.000242927527006502      -0.626126481956271       0.772023577009592
                 28992.6      -0.624078153382039       0.773632209932114    0.000329437589836248    0.000245999624785045    0.000329437589836248    0.000245999624785045      -0.624078153382039       0.773632209932114
                 28994.4      -0.622012838201031       0.775245250379784    0.000335515238464722    0.000249110357684459    0.000335515238464722    0.000249110357684459      -0.622012838201031       0.775245250379784
                 28996.2      -0.619930346217988       0.776862680716828     0.00034171988208305    0.000252260068944781     0.00034171988208305    0.000252260068944781      -0.619930346217988       0.776862680716828
                   28998      -0.617830484549419       0.778484482233371    0.000348054470888443    0.000255449096321171    0.000348054470888443    0.000255449096321171      -0.617830484549419       0.778484482233371
                 28999.8      -0.615713057577814       0.780110635112593    0.000354522029939785    0.000258677771507924    0.000354522029939785    0.000258677771507924      -0.615713057577814       0.780110635112593
                 29001.6      -0.613577866904938       0.781741118396907    0.000361125661193484    0.000261946419531045    0.000361125661193484    0.000261946419531045      -0.613577866904938       0.781741118396907
                 29003.4      -0.611424711304186       0.783375909953114    0.000367868545597222    0.000265255358107796    0.000367868545597222    0.000265255358107796      -0.611424711304186       0.783375909953114
                 29005.2      -0.609253386672001       0.785014986436499    0.000374753945243249    0.000268604896971609    0.000374753945243249    0.000268604896971609      -0.609253386672001       0.785014986436499
                   29007      -0.607063685978321       0.786658323253847    0.000381785205582953    0.000271995337160702    0.000381785205582953    0.000271995337160702      -0.607063685978321       0.786658323253847
                 29008.8      -0.604855399216041       0.788305894525318    0.000388965757704378    0.000275426970268575    0.000388965757704378    0.000275426970268575      -0.604855399216041       0.788305894525318
                 29010.6      -0.602628313349451       0.789957673045172    0.000396299120674611    0.000278900077654626    0.000396299120674611    0.000278900077654626      -0.602628313349451       0.789957673045172
                 29012.4      -0.600382212261643       0.791613630241296     0.00040378890394873    0.000282414929612848     0.00040378890394873    0.000282414929612848      -0.600382212261643       0.791613630241296
                 29014.2       -0.59811687670086       0.793273736133477    0.000411438809847281    0.000285971784496635    0.000411438809847281    0.000285971784496635       -0.59811687670086       0.793273736133477
                   29016      -0.595832084225769       0.794937959290403    0.000419252636104169     0.00028957088779754    0.000419252636104169     0.00028957088779754      -0.595832084225769       0.794937959290403
                 29017.8      -0.593527609149608       0.796606266785345    0.000427234278486991    0.000293212471175775    0.000427234278486991    0.000293212471175775      -0.593527609149608       0.796606266785345
                 29019.6      -0.591203222483215       0.798278624150466    0.000435387733491778    0.000296896751440078    0.000435387733491778    0.000296896751440078      -0.591203222483215       0.798278624150466
                 29021.4      -0.588858691876915       0.799954995329698    0.000443717101114166    0.000300623929474494    0.000443717101114166    0.000300623929474494      -0.588858691876915       0.799954995329698
                 29023.2      -0.586493781561176       0.801635342630201    0.000452226587699356    0.000304394189109586    0.000452226587699356    0.000304394189109586      -0.586493781561176       0.801635342630201
                   29025      -0.584108252286095       0.803319626672272    0.000460920508872725    0.000308207695935252    0.000460920508872725    0.000308207695935252      -0.584108252286095       0.803319626672272
                 29026.8      -0.581701861259639       0.805007806337708    0.000469803292553466    0.000312064596052393    0.000469803292553466    0.000312064596052393      -0.581701861259639       0.805007806337708
                 29028.6      -0.579274362084602       0.806699838716556    0.000478879482053571    0.000315965014760511    0.000478879482053571    0.000315965014760511      -0.579274362084602       0.806699838716556
                 29030.4      -0.576825504694297       0.808395679052184    0.000488153739264281    0.000319909055178022    0.000488153739264281    0.000319909055178022      -0.576825504694297       0.808395679052184
                 29032.2      -0.574355035286873       0.810095280684652    0.000497630847932721    0.000323896796792218    0.000497630847932721    0.000323896796792218      -0.574355035286873       0.810095280684652
                   29034      -0.571862696258339       0.811798594992252    0.000507315717030619    0.000327928293935227    0.000507315717030619    0.000327928293935227      -0.571862696258339       0.811798594992252
                 29035.8      -0.569348226134165       0.813505571331244    0.000517213384218062    0.000332003574182625    0.000517213384218062    0.000332003574182625      -0.569348226134165       0.813505571331244
                 29037.6      -0.566811359499446       0.815216156973669     0.00052732901940464    0.000336122636670893     0.00052732901940464    0.000336122636670893      -0.566811359499446       0.815216156973669
                 29039.4      -0.564251826927672       0.816930297043174    0.000537667928410303     0.00034028545032968    0.000537667928410303     0.00034028545032968      -0.564251826927672       0.816930297043174
                 29041.2      -0.561669354907976       0.818647934448795     0.00054823555672885    0.000344491952024936     0.00054823555672885    0.000344491952024936      -0.561669354907976       0.818647934448795
                   29043      -0.559063665770854       0.820369009816645     0.00055903749339666    0.000348742044608538     0.00055903749339666    0.000348742044608538      -0.559063665770854       0.820369009816645